 Entering Gaussian System, Link 0=/home/rkdql/gaussian_c01/g16/g16
 Initial command:
 /home/rkdql/gaussian_c01/g16/l1.exe "/tmp/webmo-1487/54/Gau-4896.inp" -scrdir="/tmp/webmo-1487/54/"
 Entering Link 1 = /home/rkdql/gaussian_c01/g16/l1.exe PID=      4898.
  
 Copyright (c) 1988-2019, Gaussian, Inc.  All Rights Reserved.
  
 This is part of the Gaussian(R) 16 program.  It is based on
 the Gaussian(R) 09 system (copyright 2009, Gaussian, Inc.),
 the Gaussian(R) 03 system (copyright 2003, Gaussian, Inc.),
 the Gaussian(R) 98 system (copyright 1998, Gaussian, Inc.),
 the Gaussian(R) 94 system (copyright 1995, Gaussian, Inc.),
 the Gaussian 92(TM) system (copyright 1992, Gaussian, Inc.),
 the Gaussian 90(TM) system (copyright 1990, Gaussian, Inc.),
 the Gaussian 88(TM) system (copyright 1988, Gaussian, Inc.),
 the Gaussian 86(TM) system (copyright 1986, Carnegie Mellon
 University), and the Gaussian 82(TM) system (copyright 1983,
 Carnegie Mellon University). Gaussian is a federally registered
 trademark of Gaussian, Inc.
  
 This software contains proprietary and confidential information,
 including trade secrets, belonging to Gaussian, Inc.
  
 This software is provided under written license and may be
 used, copied, transmitted, or stored only in accord with that
 written license.
  
 The following legend is applicable only to US Government
 contracts under FAR:
  
                    RESTRICTED RIGHTS LEGEND
  
 Use, reproduction and disclosure by the US Government is
 subject to restrictions as set forth in subparagraphs (a)
 and (c) of the Commercial Computer Software - Restricted
 Rights clause in FAR 52.227-19.
  
 Gaussian, Inc.
 340 Quinnipiac St., Bldg. 40, Wallingford CT 06492
  
  
 ---------------------------------------------------------------
 Warning -- This program may not be used in any manner that
 competes with the business of Gaussian, Inc. or will provide
 assistance to any competitor of Gaussian, Inc.  The licensee
 of this program is prohibited from giving any competitor of
 Gaussian, Inc. access to this program.  By using this program,
 the user acknowledges that Gaussian, Inc. is engaged in the
 business of creating and licensing software in the field of
 computational chemistry and represents and warrants to the
 licensee that it is not a competitor of Gaussian, Inc. and that
 it will not use this program in any manner prohibited above.
 ---------------------------------------------------------------
  

 Cite this work as:
 Gaussian 16, Revision C.01,
 M. J. Frisch, G. W. Trucks, H. B. Schlegel, G. E. Scuseria, 
 M. A. Robb, J. R. Cheeseman, G. Scalmani, V. Barone, 
 G. A. Petersson, H. Nakatsuji, X. Li, M. Caricato, A. V. Marenich, 
 J. Bloino, B. G. Janesko, R. Gomperts, B. Mennucci, H. P. Hratchian, 
 J. V. Ortiz, A. F. Izmaylov, J. L. Sonnenberg, D. Williams-Young, 
 F. Ding, F. Lipparini, F. Egidi, J. Goings, B. Peng, A. Petrone, 
 T. Henderson, D. Ranasinghe, V. G. Zakrzewski, J. Gao, N. Rega, 
 G. Zheng, W. Liang, M. Hada, M. Ehara, K. Toyota, R. Fukuda, 
 J. Hasegawa, M. Ishida, T. Nakajima, Y. Honda, O. Kitao, H. Nakai, 
 T. Vreven, K. Throssell, J. A. Montgomery, Jr., J. E. Peralta, 
 F. Ogliaro, M. J. Bearpark, J. J. Heyd, E. N. Brothers, K. N. Kudin, 
 V. N. Staroverov, T. A. Keith, R. Kobayashi, J. Normand, 
 K. Raghavachari, A. P. Rendell, J. C. Burant, S. S. Iyengar, 
 J. Tomasi, M. Cossi, J. M. Millam, M. Klene, C. Adamo, R. Cammi, 
 J. W. Ochterski, R. L. Martin, K. Morokuma, O. Farkas, 
 J. B. Foresman, and D. J. Fox, Gaussian, Inc., Wallingford CT, 2019.
 
 ******************************************
 Gaussian 16:  ES64L-G16RevC.01  3-Jul-2019
                26-Jan-2024 
 ******************************************
 --------------------------------------
 #N CCSD/def2SVP FREQ Geom=Connectivity
 --------------------------------------
 1/10=4,30=1,38=11,57=2/1,6,3;
 2/12=2,17=6,18=5,40=1/2;
 3/5=43,7=101,11=9,25=1,30=1,71=1/1,2,3;
 4/69=2/1;
 5/5=2,38=5,98=1/2;
 8/6=4,9=120000,10=1/1,4;
 9/5=7,15=1/13;
 11/28=-8,29=200,42=3/11;
 10/5=6/2;
 6/7=2,8=2,9=2,10=2,22=-1/1;
 7/12=7/1,2,3,16;
 1/38=10/6(3);
 7/8=1,25=1,44=-1/16;
 1/10=4,30=1,38=10/3;
 99//99;
 3/5=43,7=101,11=9,25=1,30=1,71=1/1,2,3;
 4/5=5,16=3,69=2/1;
 5/5=2,38=5,98=1/2;
 8/6=4,9=120000,10=1/1,4;
 9/5=7,15=1/13;
 11/28=-8,29=200,42=3/11;
 10/5=6/2;
 6/7=2,8=2,9=2,10=2,22=-1/1;
 7/7=1,12=7/1,2,3,16;
 1/38=10/6(-9);
 7/8=1,25=1,44=-1/16;
 1/10=4,30=1,38=10/3;
 99//99;
 ---------------
 GS_inverse_freq
 ---------------
 Symbolic Z-matrix:
 Charge =  0 Multiplicity = 1
 P
 F                    1    B1
 H                    1    B2       2    A1
 Cl                   1    B3       2    A2       3    D1       0
       Variables:
  B1                    1.61924                  
  B2                    1.42334                  
  B3                    2.06589                  
  A1                   95.98499                  
  A2                  100.75003                  
  D1                  -96.22129                  
 
 Numerical evaluation of force-constants.
 Nuclear step= 0.001000 Angstroms, electric field step= 0.000333 atomic units, NStep=1.

 GradGradGradGradGradGradGradGradGradGradGradGradGradGradGradGradGradGrad
 Berny optimization.
 Initialization pass.
                       ----------------------------
                       !    Initial Parameters    !
                       ! (Angstroms and Degrees)  !
 ----------------------                            ----------------------
 !      Name          Value   Derivative information (Atomic Units)     !
 ------------------------------------------------------------------------
 !       B1          1.6192   calculate D2E/DX2 analytically            !
 !       B2          1.4233   calculate D2E/DX2 analytically            !
 !       B3          2.0659   calculate D2E/DX2 analytically            !
 !       A1         95.985    calculate D2E/DX2 analytically            !
 !       A2        100.75     calculate D2E/DX2 analytically            !
 !       D1        -96.2213   calculate D2E/DX2 analytically            !
 ------------------------------------------------------------------------
 Trust Radius=3.00D-01 FncErr=1.00D-07 GrdErr=1.00D-07 EigMax=2.50D+02 EigMin=1.00D-04
 Number of steps in this run=      2 maximum allowed number of steps=      2.
 GradGradGradGradGradGradGradGradGradGradGradGradGradGradGradGradGradGrad

                          Input orientation:                          
 ---------------------------------------------------------------------
 Center     Atomic      Atomic             Coordinates (Angstroms)
 Number     Number       Type             X           Y           Z
 ---------------------------------------------------------------------
      1         15           0        0.000000    0.000000    0.000000
      2          9           0        0.000000    0.000000    1.619239
      3          1           0        1.415586    0.000000   -0.148409
      4         17           0       -0.219949    2.017680   -0.385339
 ---------------------------------------------------------------------
                    Distance matrix (angstroms):
                    1          2          3          4
     1  P    0.000000
     2  F    1.619239   0.000000
     3  H    1.423344   2.264611   0.000000
     4  Cl   2.065889   2.852673   2.608092   0.000000
 Stoichiometry    ClFHP
 Framework group  C1[X(ClFHP)]
 Deg. of freedom     6
 Full point group                 C1      NOp   1
 Largest Abelian subgroup         C1      NOp   1
 Largest concise Abelian subgroup C1      NOp   1
                         Standard orientation:                         
 ---------------------------------------------------------------------
 Center     Atomic      Atomic             Coordinates (Angstroms)
 Number     Number       Type             X           Y           Z
 ---------------------------------------------------------------------
      1         15           0        0.581766    0.595210   -0.111569
      2          9           0        1.466702   -0.753652    0.027694
      3          1           0        0.652665    0.961690    1.261958
      4         17           0       -1.328204   -0.182763    0.009549
 ---------------------------------------------------------------------
 Rotational constants (GHZ):          19.5797118           4.3795788           3.6781084
 Standard basis: def2SVP (5D, 7F)
 There are    58 symmetry adapted cartesian basis functions of A   symmetry.
 There are    55 symmetry adapted basis functions of A   symmetry.
    55 basis functions,   106 primitive gaussians,    58 cartesian basis functions
    21 alpha electrons       21 beta electrons
       nuclear repulsion energy       148.9479806139 Hartrees.
 NAtoms=    4 NActive=    4 NUniq=    4 SFac= 1.00D+00 NAtFMM=   60 NAOKFM=F Big=F
 Integral buffers will be    131072 words long.
 Raffenetti 1 integral format.
 Two-electron integral symmetry is turned on.
 One-electron integrals computed using PRISM.
   1 Symmetry operations used in ECPInt.
 ECPInt:  NShTT=     325 NPrTT=    1493 LenC2=     322 LenP2D=    1210.
 LDataN:  DoStor=T MaxTD1= 4 Len=   56
 NBasis=    55 RedAO= T EigKep=  1.68D-02  NBF=    55
 NBsUse=    55 1.00D-06 EigRej= -1.00D+00 NBFU=    55
 ExpMin= 1.05D-01 ExpMax= 1.04D+04 ExpMxC= 1.57D+03 IAcc=3 IRadAn=         5 AccDes= 0.00D+00
 Harris functional with IExCor=  205 and IRadAn=       5 diagonalized for initial guess.
 HarFok:  IExCor=  205 AccDes= 0.00D+00 IRadAn=         5 IDoV= 1 UseB2=F ITyADJ=14
 ICtDFT=  3500011 ScaDFX=  1.000000  1.000000  1.000000  1.000000
 FoFCou: FMM=F IPFlag=           0 FMFlag=      100000 FMFlg1=           0
         NFxFlg=           0 DoJE=T BraDBF=F KetDBF=T FulRan=T
         wScrn=  0.000000 ICntrl=       500 IOpCl=  0 I1Cent=   200000004 NGrid=           0
         NMat0=    1 NMatS0=      1 NMatT0=    0 NMatD0=    1 NMtDS0=    0 NMtDT0=    0
 Petite list used in FoFCou.
 Keep R1 ints in memory in canonical form, NReq=2030306.
 Requested convergence on RMS density matrix=1.00D-08 within 128 cycles.
 Requested convergence on MAX density matrix=1.00D-06.
 Requested convergence on             energy=1.00D-06.
 No special actions if energy rises.
 SCF Done:  E(RHF) =  -899.950973435     A.U. after   12 cycles
            NFock= 12  Conv=0.72D-08     -V/T= 2.0003
 ExpMin= 1.05D-01 ExpMax= 1.04D+04 ExpMxC= 1.57D+03 IAcc=3 IRadAn=         5 AccDes= 0.00D+00
 HarFok:  IExCor=  205 AccDes= 0.00D+00 IRadAn=         5 IDoV=-2 UseB2=F ITyADJ=14
 ICtDFT= 12500011 ScaDFX=  1.000000  1.000000  1.000000  1.000000
 Range of M.O.s used for correlation:    12    55
 NBasis=    55 NAE=    21 NBE=    21 NFC=    11 NFV=     0
 NROrb=     44 NOA=    10 NOB=    10 NVA=    34 NVB=    34
 Semi-Direct transformation.
 ModeAB=           2 MOrb=            10 LenV=     104642533
 LASXX=       347920 LTotXX=      347920 LenRXX=      347920
 LTotAB=      372350 MaxLAS=      752840 LenRXY=      752840
 NonZer=      775720 LenScr=     1744896 LnRSAI=           0
 LnScr1=           0 LExtra=           0 Total=      2845656
 MaxDsk=          -1 SrtSym=           F ITran=            4
 JobTyp=0 Pass  1:  I=   1 to  10.
 (rs|ai) integrals will be sorted in core.
 SymMOI:  orbitals are not symmetric.
 Spin components of T(2) and E(2):
     alpha-alpha T2 =       0.1670034734D-01 E2=     -0.5555538456D-01
     alpha-beta  T2 =       0.1001467274D+00 E2=     -0.3205565948D+00
     beta-beta   T2 =       0.1670034734D-01 E2=     -0.5555538456D-01
 ANorm=    0.1064681841D+01
 E2 =    -0.4316673639D+00 EUMP2 =    -0.90038264079907D+03
 Keep R2 and R3 ints in memory in canonical form, NReq=3220361.
 CIDS: In Core Option IDoMem=           1.
 Iterations=  50 Convergence= 0.100D-07
 Produce multiple copies of IABC intergrals
 Iteration Nr.   1
 **********************
 DD1Dir will call FoFMem   1 times, MxPair=       110
 NAB=    55 NAA=     0 NBB=     0.
 MP4(R+Q)=  0.60671221D-02
 E3=       -0.22657300D-01        EUMP3=      -0.90040529810D+03
 E4(DQ)=   -0.36333779D-02        UMP4(DQ)=   -0.90040893148D+03
 E4(SDQ)=  -0.74842532D-02        UMP4(SDQ)=  -0.90041278235D+03
 DE(Corr)= -0.44797298     E(Corr)=     -900.39894642    
 NORM(A)=   0.10744300D+01
 Iteration Nr.   2
 **********************
 DD1Dir will call FoFMem   1 times, MxPair=       110
 NAB=    55 NAA=     0 NBB=     0.
 DE(Corr)= -0.45901260     E(CORR)=     -900.40998603     Delta=-1.10D-02
 NORM(A)=   0.10800999D+01
 Iteration Nr.   3
 **********************
 DD1Dir will call FoFMem   1 times, MxPair=       110
 NAB=    55 NAA=     0 NBB=     0.
 DE(Corr)= -0.46005276     E(CORR)=     -900.41102620     Delta=-1.04D-03
 NORM(A)=   0.10816961D+01
 Iteration Nr.   4
 **********************
 DD1Dir will call FoFMem   1 times, MxPair=       110
 NAB=    55 NAA=     0 NBB=     0.
 DE(Corr)= -0.46117594     E(CORR)=     -900.41214938     Delta=-1.12D-03
 NORM(A)=   0.10820761D+01
 Iteration Nr.   5
 **********************
 DD1Dir will call FoFMem   1 times, MxPair=       110
 NAB=    55 NAA=     0 NBB=     0.
 DE(Corr)= -0.46125981     E(CORR)=     -900.41223325     Delta=-8.39D-05
 NORM(A)=   0.10821909D+01
 Iteration Nr.   6
 **********************
 DD1Dir will call FoFMem   1 times, MxPair=       110
 NAB=    55 NAA=     0 NBB=     0.
 DE(Corr)= -0.46127172     E(CORR)=     -900.41224515     Delta=-1.19D-05
 NORM(A)=   0.10822103D+01
 Iteration Nr.   7
 **********************
 DD1Dir will call FoFMem   1 times, MxPair=       110
 NAB=    55 NAA=     0 NBB=     0.
 DE(Corr)= -0.46127279     E(CORR)=     -900.41224622     Delta=-1.07D-06
 NORM(A)=   0.10822127D+01
 Iteration Nr.   8
 **********************
 DD1Dir will call FoFMem   1 times, MxPair=       110
 NAB=    55 NAA=     0 NBB=     0.
 DE(Corr)= -0.46127080     E(CORR)=     -900.41224423     Delta= 1.99D-06
 NORM(A)=   0.10822140D+01
 Iteration Nr.   9
 **********************
 DD1Dir will call FoFMem   1 times, MxPair=       110
 NAB=    55 NAA=     0 NBB=     0.
 DE(Corr)= -0.46127205     E(CORR)=     -900.41224548     Delta=-1.25D-06
 NORM(A)=   0.10822145D+01
 Iteration Nr.  10
 **********************
 DD1Dir will call FoFMem   1 times, MxPair=       110
 NAB=    55 NAA=     0 NBB=     0.
 DE(Corr)= -0.46127203     E(CORR)=     -900.41224547     Delta= 1.27D-08
 NORM(A)=   0.10822150D+01
 Iteration Nr.  11
 **********************
 DD1Dir will call FoFMem   1 times, MxPair=       110
 NAB=    55 NAA=     0 NBB=     0.
 DE(Corr)= -0.46127243     E(CORR)=     -900.41224587     Delta=-4.01D-07
 NORM(A)=   0.10822152D+01
 Iteration Nr.  12
 **********************
 DD1Dir will call FoFMem   1 times, MxPair=       110
 NAB=    55 NAA=     0 NBB=     0.
 DE(Corr)= -0.46127244     E(CORR)=     -900.41224588     Delta=-1.05D-08
 NORM(A)=   0.10822153D+01
 Iteration Nr.  13
 **********************
 DD1Dir will call FoFMem   1 times, MxPair=       110
 NAB=    55 NAA=     0 NBB=     0.
 DE(Corr)= -0.46127249     E(CORR)=     -900.41224593     Delta=-4.67D-08
 NORM(A)=   0.10822153D+01
 Iteration Nr.  14
 **********************
 DD1Dir will call FoFMem   1 times, MxPair=       110
 NAB=    55 NAA=     0 NBB=     0.
 DE(Corr)= -0.46127249     E(CORR)=     -900.41224593     Delta=-3.37D-09
 NORM(A)=   0.10822154D+01
 Wavefunction amplitudes converged. E(Corr)=     -900.41224593    
 Largest amplitude= 5.29D-02

 Z-amplitude iterations

 Iteration Nr.   1
 **********************
 DD1Dir will call FoFMem   1 times, MxPair=       110
 NAB=    55 NAA=     0 NBB=     0.
 DE(Z)= -0.45238624     E(Z)=     -900.40335968     Delta= 8.89D-03
 NORM(A)=   0.10822145D+01
 Iteration Nr.   2
 **********************
 DD1Dir will call FoFMem   1 times, MxPair=       110
 NAB=    55 NAA=     0 NBB=     0.
 DE(Z)= -0.45238588     E(Z)=     -900.40335931     Delta= 3.66D-07
 NORM(A)=   0.10822131D+01
 Iteration Nr.   3
 **********************
 DD1Dir will call FoFMem   1 times, MxPair=       110
 NAB=    55 NAA=     0 NBB=     0.
 DE(Z)= -0.45238552     E(Z)=     -900.40335895     Delta= 3.60D-07
 NORM(A)=   0.10822123D+01
 Iteration Nr.   4
 **********************
 DD1Dir will call FoFMem   1 times, MxPair=       110
 NAB=    55 NAA=     0 NBB=     0.
 DE(Z)= -0.45238524     E(Z)=     -900.40335868     Delta= 2.78D-07
 NORM(A)=   0.10822052D+01
 Iteration Nr.   5
 **********************
 DD1Dir will call FoFMem   1 times, MxPair=       110
 NAB=    55 NAA=     0 NBB=     0.
 DE(Z)= -0.45238292     E(Z)=     -900.40335636     Delta= 2.32D-06
 NORM(A)=   0.10761912D+01
 Iteration Nr.   6
 **********************
 DD1Dir will call FoFMem   1 times, MxPair=       110
 NAB=    55 NAA=     0 NBB=     0.
 DE(Z)= -0.45025561     E(Z)=     -900.40122904     Delta= 2.13D-03
 NORM(A)=   0.10761934D+01
 Iteration Nr.   7
 **********************
 DD1Dir will call FoFMem   1 times, MxPair=       110
 NAB=    55 NAA=     0 NBB=     0.
 DE(Z)= -0.45025678     E(Z)=     -900.40123021     Delta=-1.17D-06
 NORM(A)=   0.10761921D+01
 Iteration Nr.   8
 **********************
 DD1Dir will call FoFMem   1 times, MxPair=       110
 NAB=    55 NAA=     0 NBB=     0.
 DE(Z)= -0.45025719     E(Z)=     -900.40123062     Delta=-4.10D-07
 NORM(A)=   0.10761916D+01
 Iteration Nr.   9
 **********************
 DD1Dir will call FoFMem   1 times, MxPair=       110
 NAB=    55 NAA=     0 NBB=     0.
 DE(Z)= -0.45025644     E(Z)=     -900.40122988     Delta= 7.45D-07
 NORM(A)=   0.10761912D+01
 Iteration Nr.  10
 **********************
 DD1Dir will call FoFMem   1 times, MxPair=       110
 NAB=    55 NAA=     0 NBB=     0.
 DE(Z)= -0.45025648     E(Z)=     -900.40122991     Delta=-3.46D-08
 NORM(A)=   0.10761911D+01
 Iteration Nr.  11
 **********************
 DD1Dir will call FoFMem   1 times, MxPair=       110
 NAB=    55 NAA=     0 NBB=     0.
 DE(Z)= -0.45025638     E(Z)=     -900.40122981     Delta= 1.01D-07
 NORM(A)=   0.10761911D+01
 Iteration Nr.  12
 **********************
 DD1Dir will call FoFMem   1 times, MxPair=       110
 NAB=    55 NAA=     0 NBB=     0.
 DE(Z)= -0.45025639     E(Z)=     -900.40122982     Delta=-1.04D-08
 NORM(A)=   0.10761911D+01
 Iteration Nr.  13
 **********************
 DD1Dir will call FoFMem   1 times, MxPair=       110
 NAB=    55 NAA=     0 NBB=     0.
 DE(Z)= -0.45025640     E(Z)=     -900.40122983     Delta=-1.00D-08
 NORM(A)=   0.10761911D+01
 Iteration Nr.  14
 **********************
 DD1Dir will call FoFMem   1 times, MxPair=       110
 NAB=    55 NAA=     0 NBB=     0.
 DE(Z)= -0.45025640     E(Z)=     -900.40122983     Delta=-2.14D-09
 NORM(A)=   0.10761911D+01
 Z-amplitudes converged.
 Discarding MO integrals.
          IDoAtm=1111
          Differentiating once with respect to electric field.
                with respect to dipole field.
          Differentiating once with respect to nuclear coordinates.
 Keep R1 ints in memory in canonical form, NReq=2031308.
          There are     1 degrees of freedom in the 1st order CPHF.  IDoFFX=0 NUNeed=     1.
 LinEq1:  Iter=  0 NonCon=     1 RMS=4.70D-03 Max=4.80D-02 NDo=     1
 AX will form     1 AO Fock derivatives at one time.
 LinEq1:  Iter=  1 NonCon=     1 RMS=1.29D-03 Max=1.04D-02 NDo=     1
 LinEq1:  Iter=  2 NonCon=     1 RMS=3.76D-04 Max=3.24D-03 NDo=     1
 LinEq1:  Iter=  3 NonCon=     1 RMS=1.10D-04 Max=8.52D-04 NDo=     1
 LinEq1:  Iter=  4 NonCon=     1 RMS=2.82D-05 Max=2.00D-04 NDo=     1
 LinEq1:  Iter=  5 NonCon=     1 RMS=6.91D-06 Max=6.12D-05 NDo=     1
 LinEq1:  Iter=  6 NonCon=     1 RMS=1.83D-06 Max=2.42D-05 NDo=     1
 LinEq1:  Iter=  7 NonCon=     1 RMS=4.66D-07 Max=3.64D-06 NDo=     1
 LinEq1:  Iter=  8 NonCon=     1 RMS=9.20D-08 Max=5.99D-07 NDo=     1
 LinEq1:  Iter=  9 NonCon=     1 RMS=1.86D-08 Max=1.75D-07 NDo=     1
 LinEq1:  Iter= 10 NonCon=     1 RMS=3.12D-09 Max=2.39D-08 NDo=     1
 LinEq1:  Iter= 11 NonCon=     1 RMS=4.57D-10 Max=3.04D-09 NDo=     1
 LinEq1:  Iter= 12 NonCon=     0 RMS=8.57D-11 Max=5.64D-10 NDo=     1
 Linear equations converged to 1.000D-10 1.000D-09 after    12 iterations.
 End of Minotr F.D. properties file   721 does not exist.
 End of Minotr F.D. properties file   722 does not exist.
 End of Minotr F.D. properties file   788 does not exist.

 **********************************************************************

            Population analysis using the CC Density.

 **********************************************************************

 Orbital symmetries:
       Occupied  (A) (A) (A) (A) (A) (A) (A) (A) (A) (A) (A) (A)
                 (A) (A) (A) (A) (A) (A) (A) (A) (A)
       Virtual   (A) (A) (A) (A) (A) (A) (A) (A) (A) (A) (A) (A)
                 (A) (A) (A) (A) (A) (A) (A) (A) (A) (A) (A) (A)
                 (A) (A) (A) (A) (A) (A) (A) (A) (A) (A)
 The electronic state is 1-A.
 Alpha  occ. eigenvalues -- -104.80336 -80.04315 -26.30401 -10.56771  -8.04241
 Alpha  occ. eigenvalues --   -8.03923  -8.03893  -7.60303  -5.50144  -5.50013
 Alpha  occ. eigenvalues --   -5.49778  -1.58913  -1.12096  -0.85927  -0.70802
 Alpha  occ. eigenvalues --   -0.69270  -0.66929  -0.55321  -0.49573  -0.47877
 Alpha  occ. eigenvalues --   -0.40282
 Alpha virt. eigenvalues --    0.11885   0.13001   0.19368   0.43043   0.49918
 Alpha virt. eigenvalues --    0.63187   0.66441   0.68569   0.71384   0.74076
 Alpha virt. eigenvalues --    0.79539   0.81918   0.92054   1.01940   1.02802
 Alpha virt. eigenvalues --    1.05926   1.06648   1.12591   1.19565   1.22443
 Alpha virt. eigenvalues --    1.25828   1.51018   1.54657   1.56117   1.60167
 Alpha virt. eigenvalues --    1.78635   1.84129   2.11162   2.38701   3.43316
 Alpha virt. eigenvalues --    3.43586   3.50095   3.51971   3.88048
          Condensed to atoms (all electrons):
               1          2          3          4
     1  P   13.657884   0.180140   0.269022   0.183201
     2  F    0.180140   9.256360  -0.014242  -0.015112
     3  H    0.269022  -0.014242   0.803399  -0.022172
     4  Cl   0.183201  -0.015112  -0.022172  17.120682
 Mulliken charges:
               1
     1  P    0.709753
     2  F   -0.407145
     3  H   -0.036008
     4  Cl  -0.266600
 Sum of Mulliken charges =  -0.00000
 Mulliken charges with hydrogens summed into heavy atoms:
               1
     1  P    0.673745
     2  F   -0.407145
     4  Cl  -0.266600
 Electronic spatial extent (au):  <R**2>=            314.3034
 Charge=             -0.0000 electrons
 Dipole moment (field-independent basis, Debye):
    X=              0.3482    Y=              1.5747    Z=              0.4368  Tot=              1.6709
 Quadrupole moment (field-independent basis, Debye-Ang):
   XX=            -32.2429   YY=            -30.6207   ZZ=            -30.5763
   XY=              1.6213   XZ=              0.3967   YZ=              1.1421
 Traceless Quadrupole moment (field-independent basis, Debye-Ang):
   XX=             -1.0963   YY=              0.5259   ZZ=              0.5704
   XY=              1.6213   XZ=              0.3967   YZ=              1.1421
 Octapole moment (field-independent basis, Debye-Ang**2):
  XXX=              3.2773  YYY=             -5.5827  ZZZ=              0.9699  XYY=              0.2811
  XXY=             -0.0785  XXZ=              0.7307  XZZ=              2.0047  YZZ=             -2.9691
  YYZ=              1.5341  XYZ=              0.9244
 Hexadecapole moment (field-independent basis, Debye-Ang**3):
 XXXX=           -248.3716 YYYY=            -81.3488 ZZZZ=            -42.8570 XXXY=             -0.5066
 XXXZ=              0.5608 YYYX=             -7.5928 YYYZ=              2.2109 ZZZX=              0.9638
 ZZZY=              1.5280 XXYY=            -56.6568 XXZZ=            -49.8687 YYZZ=            -21.6782
 XXYZ=              0.8898 YYXZ=              1.2132 ZZXY=             -3.2772
 N-N= 1.489479806139D+02 E-N=-2.442873138956D+03  KE= 9.001878517630D+02
   1 Symmetry operations used in ECPInt.
 ECPInt:  NShTT=     325 NPrTT=    1493 LenC2=     322 LenP2D=    1210.
 LDataN:  DoStor=T MaxTD1= 5 Len=  102
 Calling FoFJK, ICntrl=  10002127 FMM=F ISym2X=0 I1Cent= 0 IOpClX= 0 NMat=1 NMatS=1 NMatT=0.
 ***** Axes restored to original set *****
 -------------------------------------------------------------------
 Center     Atomic                   Forces (Hartrees/Bohr)
 Number     Number              X              Y              Z
 -------------------------------------------------------------------
      1       15           0.000023140    0.000039202   -0.000076859
      2        9           0.000002885   -0.000002470    0.000065691
      3        1          -0.000017859   -0.000015010    0.000007900
      4       17          -0.000008166   -0.000021722    0.000003268
 -------------------------------------------------------------------
 Cartesian Forces:  Max     0.000076859 RMS     0.000033498
 -----------------------------------------------------------------------------------------------
                       Internal Coordinate Forces (Hartree/Bohr or radian)
  Cent   Atom   N1       Length/X         N2         Alpha/Y        N3         Beta/Z          J
 -----------------------------------------------------------------------------------------------
      1  P 
      2  F        1   0.000066(     1)
      3  H        1  -0.000019(     2)      2  -0.000016(     4)
      4  Cl       1  -0.000021(     3)      2   0.000003(     5)      3  -0.000040(     6)     0
 -----------------------------------------------------------------------------------------------
 Internal  Forces:  Max     0.000065691 RMS     0.000034106
 NDeriv=     12 NFrqRd=  0 NDerD0=      0 MskFDP=       0 MskDFD=       0 MskDF0=       0
 At 1st pt F.D. properties file   721 does not exist.
 At 1st pt F.D. properties file   722 does not exist.
 D2Numr ... symmetry will be used.
 Standard basis: def2SVP (5D, 7F)
    55 basis functions,   106 primitive gaussians,    58 cartesian basis functions
    21 alpha electrons       21 beta electrons
       nuclear repulsion energy       148.9338449360 Hartrees.
 NAtoms=    4 NActive=    4 NUniq=    4 SFac= 1.00D+00 NAtFMM=   60 NAOKFM=F Big=F
 Integral buffers will be    131072 words long.
 Raffenetti 1 integral format.
 Two-electron integral symmetry is turned off.
 One-electron integrals computed using PRISM.
   1 Symmetry operations used in ECPInt.
 ECPInt:  NShTT=     325 NPrTT=    1493 LenC2=     322 LenP2D=    1210.
 LDataN:  DoStor=T MaxTD1= 4 Len=   56
 NBasis=    55 RedAO= T EigKep=  1.68D-02  NBF=    55
 NBsUse=    55 1.00D-06 EigRej= -1.00D+00 NBFU=    55
 Initial guess from the checkpoint file:  "/tmp/webmo-1487/54/Gau-4898.chk"
 B after Tr=     0.000675   -0.000000    0.000000
         Rot=    1.000000    0.000000    0.000015    0.000067 Ang=   0.01 deg.
 Keep R1 ints in memory in canonical form, NReq=2030168.
 Requested convergence on RMS density matrix=1.00D-08 within 128 cycles.
 Requested convergence on MAX density matrix=1.00D-06.
 Requested convergence on             energy=1.00D-06.
 No special actions if energy rises.
 SCF Done:  E(RHF) =  -899.950986615     A.U. after    8 cycles
            NFock=  8  Conv=0.68D-08     -V/T= 2.0003
 ExpMin= 1.05D-01 ExpMax= 1.04D+04 ExpMxC= 1.57D+03 IAcc=3 IRadAn=         5 AccDes= 0.00D+00
 HarFok:  IExCor=  205 AccDes= 0.00D+00 IRadAn=         5 IDoV=-2 UseB2=F ITyADJ=14
 ICtDFT= 12500011 ScaDFX=  1.000000  1.000000  1.000000  1.000000
 Range of M.O.s used for correlation:    12    55
 NBasis=    55 NAE=    21 NBE=    21 NFC=    11 NFV=     0
 NROrb=     44 NOA=    10 NOB=    10 NVA=    34 NVB=    34
 Semi-Direct transformation.
 ModeAB=           2 MOrb=            10 LenV=     104642533
 LASXX=       347920 LTotXX=      347920 LenRXX=      347920
 LTotAB=      372350 MaxLAS=      752840 LenRXY=      752840
 NonZer=      775720 LenScr=     1744896 LnRSAI=           0
 LnScr1=           0 LExtra=           0 Total=      2845656
 MaxDsk=          -1 SrtSym=           F ITran=            4
 JobTyp=0 Pass  1:  I=   1 to  10.
 (rs|ai) integrals will be sorted in core.
 Spin components of T(2) and E(2):
     alpha-alpha T2 =       0.1669807543D-01 E2=     -0.5555118563D-01
     alpha-beta  T2 =       0.1001442642D+00 E2=     -0.3205460124D+00
     beta-beta   T2 =       0.1669807543D-01 E2=     -0.5555118563D-01
 ANorm=    0.1064678550D+01
 E2 =    -0.4316483837D+00 EUMP2 =    -0.90038263499876D+03
 Keep R2 and R3 ints in memory in canonical form, NReq=3220223.
 CIDS: In Core Option IDoMem=           1.
 Iterations=  50 Convergence= 0.100D-07
 Produce multiple copies of IABC intergrals
 Iteration Nr.   1
 **********************
 DD1Dir will call FoFMem   1 times, MxPair=       110
 NAB=    55 NAA=     0 NBB=     0.
 MP4(R+Q)=  0.60671706D-02
 E3=       -0.22662639D-01        EUMP3=      -0.90040529764D+03
 E4(DQ)=   -0.36331100D-02        UMP4(DQ)=   -0.90040893075D+03
 E4(SDQ)=  -0.74834032D-02        UMP4(SDQ)=  -0.90041278104D+03
 DE(Corr)= -0.44795936     E(Corr)=     -900.39894598    
 NORM(A)=   0.10744295D+01
 Iteration Nr.   2
 **********************
 DD1Dir will call FoFMem   1 times, MxPair=       110
 NAB=    55 NAA=     0 NBB=     0.
 DE(Corr)= -0.45899823     E(CORR)=     -900.40998485     Delta=-1.10D-02
 NORM(A)=   0.10801002D+01
 Iteration Nr.   3
 **********************
 DD1Dir will call FoFMem   1 times, MxPair=       110
 NAB=    55 NAA=     0 NBB=     0.
 DE(Corr)= -0.46003915     E(CORR)=     -900.41102577     Delta=-1.04D-03
 NORM(A)=   0.10816965D+01
 Iteration Nr.   4
 **********************
 DD1Dir will call FoFMem   1 times, MxPair=       110
 NAB=    55 NAA=     0 NBB=     0.
 DE(Corr)= -0.46116217     E(CORR)=     -900.41214879     Delta=-1.12D-03
 NORM(A)=   0.10820767D+01
 Iteration Nr.   5
 **********************
 DD1Dir will call FoFMem   1 times, MxPair=       110
 NAB=    55 NAA=     0 NBB=     0.
 DE(Corr)= -0.46124604     E(CORR)=     -900.41223266     Delta=-8.39D-05
 NORM(A)=   0.10821914D+01
 Iteration Nr.   6
 **********************
 DD1Dir will call FoFMem   1 times, MxPair=       110
 NAB=    55 NAA=     0 NBB=     0.
 DE(Corr)= -0.46125795     E(CORR)=     -900.41224456     Delta=-1.19D-05
 NORM(A)=   0.10822109D+01
 Iteration Nr.   7
 **********************
 DD1Dir will call FoFMem   1 times, MxPair=       110
 NAB=    55 NAA=     0 NBB=     0.
 DE(Corr)= -0.46125902     E(CORR)=     -900.41224564     Delta=-1.07D-06
 NORM(A)=   0.10822133D+01
 Iteration Nr.   8
 **********************
 DD1Dir will call FoFMem   1 times, MxPair=       110
 NAB=    55 NAA=     0 NBB=     0.
 DE(Corr)= -0.46125703     E(CORR)=     -900.41224364     Delta= 1.99D-06
 NORM(A)=   0.10822145D+01
 Iteration Nr.   9
 **********************
 DD1Dir will call FoFMem   1 times, MxPair=       110
 NAB=    55 NAA=     0 NBB=     0.
 DE(Corr)= -0.46125828     E(CORR)=     -900.41224489     Delta=-1.25D-06
 NORM(A)=   0.10822151D+01
 Iteration Nr.  10
 **********************
 DD1Dir will call FoFMem   1 times, MxPair=       110
 NAB=    55 NAA=     0 NBB=     0.
 DE(Corr)= -0.46125827     E(CORR)=     -900.41224488     Delta= 1.32D-08
 NORM(A)=   0.10822155D+01
 Iteration Nr.  11
 **********************
 DD1Dir will call FoFMem   1 times, MxPair=       110
 NAB=    55 NAA=     0 NBB=     0.
 DE(Corr)= -0.46125867     E(CORR)=     -900.41224528     Delta=-4.02D-07
 NORM(A)=   0.10822157D+01
 Iteration Nr.  12
 **********************
 DD1Dir will call FoFMem   1 times, MxPair=       110
 NAB=    55 NAA=     0 NBB=     0.
 DE(Corr)= -0.46125868     E(CORR)=     -900.41224529     Delta=-1.04D-08
 NORM(A)=   0.10822159D+01
 Iteration Nr.  13
 **********************
 DD1Dir will call FoFMem   1 times, MxPair=       110
 NAB=    55 NAA=     0 NBB=     0.
 DE(Corr)= -0.46125872     E(CORR)=     -900.41224534     Delta=-4.68D-08
 NORM(A)=   0.10822159D+01
 Iteration Nr.  14
 **********************
 DD1Dir will call FoFMem   1 times, MxPair=       110
 NAB=    55 NAA=     0 NBB=     0.
 DE(Corr)= -0.46125873     E(CORR)=     -900.41224534     Delta=-3.39D-09
 NORM(A)=   0.10822159D+01
 Wavefunction amplitudes converged. E(Corr)=     -900.41224534    
 Largest amplitude= 5.28D-02

 Z-amplitude iterations

 Iteration Nr.   1
 **********************
 DD1Dir will call FoFMem   1 times, MxPair=       110
 NAB=    55 NAA=     0 NBB=     0.
 DE(Z)= -0.45237210     E(Z)=     -900.40335871     Delta= 8.89D-03
 NORM(A)=   0.10822150D+01
 Iteration Nr.   2
 **********************
 DD1Dir will call FoFMem   1 times, MxPair=       110
 NAB=    55 NAA=     0 NBB=     0.
 DE(Z)= -0.45237174     E(Z)=     -900.40335835     Delta= 3.63D-07
 NORM(A)=   0.10822123D+01
 Iteration Nr.   3
 **********************
 DD1Dir will call FoFMem   1 times, MxPair=       110
 NAB=    55 NAA=     0 NBB=     0.
 DE(Z)= -0.45237094     E(Z)=     -900.40335756     Delta= 7.92D-07
 NORM(A)=   0.10822120D+01
 Iteration Nr.   4
 **********************
 DD1Dir will call FoFMem   1 times, MxPair=       110
 NAB=    55 NAA=     0 NBB=     0.
 DE(Z)= -0.45237080     E(Z)=     -900.40335742     Delta= 1.39D-07
 NORM(A)=   0.10821863D+01
 Iteration Nr.   5
 **********************
 DD1Dir will call FoFMem   1 times, MxPair=       110
 NAB=    55 NAA=     0 NBB=     0.
 DE(Z)= -0.45236238     E(Z)=     -900.40334899     Delta= 8.43D-06
 NORM(A)=   0.10761915D+01
 Iteration Nr.   6
 **********************
 DD1Dir will call FoFMem   1 times, MxPair=       110
 NAB=    55 NAA=     0 NBB=     0.
 DE(Z)= -0.45024182     E(Z)=     -900.40122844     Delta= 2.12D-03
 NORM(A)=   0.10761938D+01
 Iteration Nr.   7
 **********************
 DD1Dir will call FoFMem   1 times, MxPair=       110
 NAB=    55 NAA=     0 NBB=     0.
 DE(Z)= -0.45024317     E(Z)=     -900.40122979     Delta=-1.35D-06
 NORM(A)=   0.10761919D+01
 Iteration Nr.   8
 **********************
 DD1Dir will call FoFMem   1 times, MxPair=       110
 NAB=    55 NAA=     0 NBB=     0.
 DE(Z)= -0.45024278     E(Z)=     -900.40122939     Delta= 3.95D-07
 NORM(A)=   0.10761915D+01
 Iteration Nr.   9
 **********************
 DD1Dir will call FoFMem   1 times, MxPair=       110
 NAB=    55 NAA=     0 NBB=     0.
 DE(Z)= -0.45024230     E(Z)=     -900.40122892     Delta= 4.74D-07
 NORM(A)=   0.10761914D+01
 Iteration Nr.  10
 **********************
 DD1Dir will call FoFMem   1 times, MxPair=       110
 NAB=    55 NAA=     0 NBB=     0.
 DE(Z)= -0.45024245     E(Z)=     -900.40122906     Delta=-1.47D-07
 NORM(A)=   0.10761914D+01
 Iteration Nr.  11
 **********************
 DD1Dir will call FoFMem   1 times, MxPair=       110
 NAB=    55 NAA=     0 NBB=     0.
 DE(Z)= -0.45024236     E(Z)=     -900.40122898     Delta= 8.70D-08
 NORM(A)=   0.10761914D+01
 Iteration Nr.  12
 **********************
 DD1Dir will call FoFMem   1 times, MxPair=       110
 NAB=    55 NAA=     0 NBB=     0.
 DE(Z)= -0.45024238     E(Z)=     -900.40122900     Delta=-1.94D-08
 NORM(A)=   0.10761915D+01
 Iteration Nr.  13
 **********************
 DD1Dir will call FoFMem   1 times, MxPair=       110
 NAB=    55 NAA=     0 NBB=     0.
 DE(Z)= -0.45024239     E(Z)=     -900.40122900     Delta=-4.95D-09
 NORM(A)=   0.10761915D+01
 Z-amplitudes converged.
 Discarding MO integrals.
          IDoAtm=1111
          Differentiating once with respect to electric field.
                with respect to dipole field.
          Differentiating once with respect to nuclear coordinates.
 Keep R1 ints in memory in canonical form, NReq=2031170.
          There are     1 degrees of freedom in the 1st order CPHF.  IDoFFX=0 NUNeed=     1.
 LinEq1:  Iter=  0 NonCon=     1 RMS=4.70D-03 Max=4.83D-02 NDo=     1
 AX will form     1 AO Fock derivatives at one time.
 LinEq1:  Iter=  1 NonCon=     1 RMS=1.29D-03 Max=1.04D-02 NDo=     1
 LinEq1:  Iter=  2 NonCon=     1 RMS=3.76D-04 Max=3.24D-03 NDo=     1
 LinEq1:  Iter=  3 NonCon=     1 RMS=1.10D-04 Max=8.54D-04 NDo=     1
 LinEq1:  Iter=  4 NonCon=     1 RMS=2.81D-05 Max=1.99D-04 NDo=     1
 LinEq1:  Iter=  5 NonCon=     1 RMS=6.91D-06 Max=6.10D-05 NDo=     1
 LinEq1:  Iter=  6 NonCon=     1 RMS=1.83D-06 Max=2.41D-05 NDo=     1
 LinEq1:  Iter=  7 NonCon=     1 RMS=4.66D-07 Max=3.63D-06 NDo=     1
 LinEq1:  Iter=  8 NonCon=     1 RMS=9.21D-08 Max=6.06D-07 NDo=     1
 LinEq1:  Iter=  9 NonCon=     1 RMS=1.86D-08 Max=1.77D-07 NDo=     1
 LinEq1:  Iter= 10 NonCon=     1 RMS=3.13D-09 Max=2.39D-08 NDo=     1
 LinEq1:  Iter= 11 NonCon=     1 RMS=4.56D-10 Max=3.03D-09 NDo=     1
 LinEq1:  Iter= 12 NonCon=     0 RMS=8.58D-11 Max=5.62D-10 NDo=     1
 Linear equations converged to 1.000D-10 1.000D-09 after    12 iterations.
 End of Minotr F.D. properties file   721 does not exist.
 End of Minotr F.D. properties file   722 does not exist.
 End of Minotr F.D. properties file   788 does not exist.

 **********************************************************************

            Population analysis using the CC Density.

 **********************************************************************

 Alpha  occ. eigenvalues -- -104.80322 -80.04321 -26.30421 -10.56756  -8.04226
 Alpha  occ. eigenvalues --   -8.03908  -8.03878  -7.60309  -5.50150  -5.50018
 Alpha  occ. eigenvalues --   -5.49784  -1.58947  -1.12067  -0.85940  -0.70827
 Alpha  occ. eigenvalues --   -0.69293  -0.66944  -0.55303  -0.49555  -0.47861
 Alpha  occ. eigenvalues --   -0.40286
 Alpha virt. eigenvalues --    0.11868   0.12999   0.19369   0.43053   0.49915
 Alpha virt. eigenvalues --    0.63203   0.66452   0.68586   0.71388   0.74076
 Alpha virt. eigenvalues --    0.79545   0.81915   0.92049   1.01960   1.02818
 Alpha virt. eigenvalues --    1.05933   1.06654   1.12598   1.19540   1.22433
 Alpha virt. eigenvalues --    1.25819   1.51013   1.54646   1.56104   1.60147
 Alpha virt. eigenvalues --    1.78625   1.84120   2.11146   2.38704   3.43293
 Alpha virt. eigenvalues --    3.43563   3.50089   3.51967   3.88105
          Condensed to atoms (all electrons):
               1          2          3          4
     1  P   13.657757   0.180226   0.268995   0.183236
     2  F    0.180226   9.255956  -0.014235  -0.015118
     3  H    0.268995  -0.014235   0.803407  -0.022167
     4  Cl   0.183236  -0.015118  -0.022167  17.121004
 Mulliken charges:
               1
     1  P    0.709786
     2  F   -0.406830
     3  H   -0.036000
     4  Cl  -0.266955
 Sum of Mulliken charges =   0.00000
 Mulliken charges with hydrogens summed into heavy atoms:
               1
     1  P    0.673785
     2  F   -0.406830
     4  Cl  -0.266955
 Electronic spatial extent (au):  <R**2>=            314.3639
 Charge=              0.0000 electrons
 Dipole moment (field-independent basis, Debye):
    X=              0.3560    Y=              1.5748    Z=              0.4366  Tot=              1.6725
 Quadrupole moment (field-independent basis, Debye-Ang):
   XX=            -32.2408   YY=            -30.6200   ZZ=            -30.5766
   XY=              1.6201   XZ=              0.3971   YZ=              1.1416
 Traceless Quadrupole moment (field-independent basis, Debye-Ang):
   XX=             -1.0950   YY=              0.5258   ZZ=              0.5692
   XY=              1.6201   XZ=              0.3971   YZ=              1.1416
 Octapole moment (field-independent basis, Debye-Ang**2):
  XXX=              3.2638  YYY=             -5.5813  ZZZ=              0.9695  XYY=              0.2739
  XXY=             -0.0810  XXZ=              0.7322  XZZ=              1.9961  YZZ=             -2.9687
  YYZ=              1.5335  XYZ=              0.9256
 Hexadecapole moment (field-independent basis, Debye-Ang**3):
 XXXX=           -248.4457 YYYY=            -81.3430 ZZZZ=            -42.8568 XXXY=             -0.5313
 XXXZ=              0.5669 YYYX=             -7.6170 YYYZ=              2.2096 ZZZX=              0.9682
 ZZZY=              1.5272 XXYY=            -56.6725 XXZZ=            -49.8842 YYZZ=            -21.6772
 XXYZ=              0.8912 YYXZ=              1.2157 ZZXY=             -3.2861
 N-N= 1.489338449360D+02 E-N=-2.442844635810D+03  KE= 9.001875982723D+02
   1 Symmetry operations used in ECPInt.
 ECPInt:  NShTT=     325 NPrTT=    1493 LenC2=     322 LenP2D=    1210.
 LDataN:  DoStor=T MaxTD1= 5 Len=  102
 Calling FoFJK, ICntrl=  10002127 FMM=F ISym2X=0 I1Cent= 0 IOpClX= 0 NMat=1 NMatS=1 NMatT=0.
 -------------------------------------------------------------------
 Center     Atomic                   Forces (Hartrees/Bohr)
 Number     Number              X              Y              Z
 -------------------------------------------------------------------
      1       15          -0.000549730    0.000166605    0.000003787
      2        9           0.000232434   -0.000292289    0.000047693
      3        1           0.000055417    0.000000805   -0.000000168
      4       17           0.000261879    0.000124880   -0.000051313
 -------------------------------------------------------------------
 Cartesian Forces:  Max     0.000549730 RMS     0.000216331
 NDeriv=     12 NFrqRd=  0 NDerD0=      0 MskFDP=       0 MskDFD=       0 MskDF0=       0
 Re-enter D2Numr:  atom      1 IXYZ=1 step-up   number 1
 Standard basis: def2SVP (5D, 7F)
    55 basis functions,   106 primitive gaussians,    58 cartesian basis functions
    21 alpha electrons       21 beta electrons
       nuclear repulsion energy       148.9621357503 Hartrees.
 NAtoms=    4 NActive=    4 NUniq=    4 SFac= 1.00D+00 NAtFMM=   60 NAOKFM=F Big=F
 Integral buffers will be    131072 words long.
 Raffenetti 1 integral format.
 Two-electron integral symmetry is turned off.
 One-electron integrals computed using PRISM.
   1 Symmetry operations used in ECPInt.
 ECPInt:  NShTT=     325 NPrTT=    1493 LenC2=     322 LenP2D=    1210.
 LDataN:  DoStor=T MaxTD1= 4 Len=   56
 NBasis=    55 RedAO= T EigKep=  1.68D-02  NBF=    55
 NBsUse=    55 1.00D-06 EigRej= -1.00D+00 NBFU=    55
 Initial guess from the checkpoint file:  "/tmp/webmo-1487/54/Gau-4898.chk"
 B after Tr=    -0.000675    0.000000   -0.000000
         Rot=    1.000000    0.000000   -0.000015   -0.000067 Ang=  -0.01 deg.
 Keep R1 ints in memory in canonical form, NReq=2030168.
 Requested convergence on RMS density matrix=1.00D-08 within 128 cycles.
 Requested convergence on MAX density matrix=1.00D-06.
 Requested convergence on             energy=1.00D-06.
 No special actions if energy rises.
 SCF Done:  E(RHF) =  -899.950959325     A.U. after    8 cycles
            NFock=  8  Conv=0.68D-08     -V/T= 2.0003
 ExpMin= 1.05D-01 ExpMax= 1.04D+04 ExpMxC= 1.57D+03 IAcc=3 IRadAn=         5 AccDes= 0.00D+00
 HarFok:  IExCor=  205 AccDes= 0.00D+00 IRadAn=         5 IDoV=-2 UseB2=F ITyADJ=14
 ICtDFT= 12500011 ScaDFX=  1.000000  1.000000  1.000000  1.000000
 Range of M.O.s used for correlation:    12    55
 NBasis=    55 NAE=    21 NBE=    21 NFC=    11 NFV=     0
 NROrb=     44 NOA=    10 NOB=    10 NVA=    34 NVB=    34
 Semi-Direct transformation.
 ModeAB=           2 MOrb=            10 LenV=     104642519
 LASXX=       347920 LTotXX=      347920 LenRXX=      347920
 LTotAB=      372350 MaxLAS=      752840 LenRXY=      752840
 NonZer=      775720 LenScr=     1744896 LnRSAI=           0
 LnScr1=           0 LExtra=           0 Total=      2845656
 MaxDsk=          -1 SrtSym=           F ITran=            4
 JobTyp=0 Pass  1:  I=   1 to  10.
 (rs|ai) integrals will be sorted in core.
 Spin components of T(2) and E(2):
     alpha-alpha T2 =       0.1670262106D-01 E2=     -0.5555958765D-01
     alpha-beta  T2 =       0.1001492280D+00 E2=     -0.3205671999D+00
     beta-beta   T2 =       0.1670262106D-01 E2=     -0.5555958765D-01
 ANorm=    0.1064685151D+01
 E2 =    -0.4316863752D+00 EUMP2 =    -0.90038264569997D+03
 Keep R2 and R3 ints in memory in canonical form, NReq=3220223.
 CIDS: In Core Option IDoMem=           1.
 Iterations=  50 Convergence= 0.100D-07
 Produce multiple copies of IABC intergrals
 Iteration Nr.   1
 **********************
 DD1Dir will call FoFMem   1 times, MxPair=       110
 NAB=    55 NAA=     0 NBB=     0.
 MP4(R+Q)=  0.60670785D-02
 E3=       -0.22651955D-01        EUMP3=      -0.90040529765D+03
 E4(DQ)=   -0.36336445D-02        UMP4(DQ)=   -0.90040893130D+03
 E4(SDQ)=  -0.74851061D-02        UMP4(SDQ)=  -0.90041278276D+03
 DE(Corr)= -0.44798662     E(Corr)=     -900.39894595    
 NORM(A)=   0.10744305D+01
 Iteration Nr.   2
 **********************
 DD1Dir will call FoFMem   1 times, MxPair=       110
 NAB=    55 NAA=     0 NBB=     0.
 DE(Corr)= -0.45902699     E(CORR)=     -900.40998631     Delta=-1.10D-02
 NORM(A)=   0.10800996D+01
 Iteration Nr.   3
 **********************
 DD1Dir will call FoFMem   1 times, MxPair=       110
 NAB=    55 NAA=     0 NBB=     0.
 DE(Corr)= -0.46006640     E(CORR)=     -900.41102573     Delta=-1.04D-03
 NORM(A)=   0.10816956D+01
 Iteration Nr.   4
 **********************
 DD1Dir will call FoFMem   1 times, MxPair=       110
 NAB=    55 NAA=     0 NBB=     0.
 DE(Corr)= -0.46118974     E(CORR)=     -900.41214906     Delta=-1.12D-03
 NORM(A)=   0.10820756D+01
 Iteration Nr.   5
 **********************
 DD1Dir will call FoFMem   1 times, MxPair=       110
 NAB=    55 NAA=     0 NBB=     0.
 DE(Corr)= -0.46127361     E(CORR)=     -900.41223293     Delta=-8.39D-05
 NORM(A)=   0.10821903D+01
 Iteration Nr.   6
 **********************
 DD1Dir will call FoFMem   1 times, MxPair=       110
 NAB=    55 NAA=     0 NBB=     0.
 DE(Corr)= -0.46128551     E(CORR)=     -900.41224484     Delta=-1.19D-05
 NORM(A)=   0.10822098D+01
 Iteration Nr.   7
 **********************
 DD1Dir will call FoFMem   1 times, MxPair=       110
 NAB=    55 NAA=     0 NBB=     0.
 DE(Corr)= -0.46128658     E(CORR)=     -900.41224591     Delta=-1.07D-06
 NORM(A)=   0.10822122D+01
 Iteration Nr.   8
 **********************
 DD1Dir will call FoFMem   1 times, MxPair=       110
 NAB=    55 NAA=     0 NBB=     0.
 DE(Corr)= -0.46128459     E(CORR)=     -900.41224392     Delta= 1.99D-06
 NORM(A)=   0.10822134D+01
 Iteration Nr.   9
 **********************
 DD1Dir will call FoFMem   1 times, MxPair=       110
 NAB=    55 NAA=     0 NBB=     0.
 DE(Corr)= -0.46128584     E(CORR)=     -900.41224516     Delta=-1.25D-06
 NORM(A)=   0.10822140D+01
 Iteration Nr.  10
 **********************
 DD1Dir will call FoFMem   1 times, MxPair=       110
 NAB=    55 NAA=     0 NBB=     0.
 DE(Corr)= -0.46128583     E(CORR)=     -900.41224515     Delta= 1.22D-08
 NORM(A)=   0.10822144D+01
 Iteration Nr.  11
 **********************
 DD1Dir will call FoFMem   1 times, MxPair=       110
 NAB=    55 NAA=     0 NBB=     0.
 DE(Corr)= -0.46128623     E(CORR)=     -900.41224555     Delta=-4.01D-07
 NORM(A)=   0.10822147D+01
 Iteration Nr.  12
 **********************
 DD1Dir will call FoFMem   1 times, MxPair=       110
 NAB=    55 NAA=     0 NBB=     0.
 DE(Corr)= -0.46128624     E(CORR)=     -900.41224556     Delta=-1.06D-08
 NORM(A)=   0.10822148D+01
 Iteration Nr.  13
 **********************
 DD1Dir will call FoFMem   1 times, MxPair=       110
 NAB=    55 NAA=     0 NBB=     0.
 DE(Corr)= -0.46128629     E(CORR)=     -900.41224561     Delta=-4.67D-08
 NORM(A)=   0.10822148D+01
 Iteration Nr.  14
 **********************
 DD1Dir will call FoFMem   1 times, MxPair=       110
 NAB=    55 NAA=     0 NBB=     0.
 DE(Corr)= -0.46128629     E(CORR)=     -900.41224561     Delta=-3.35D-09
 NORM(A)=   0.10822148D+01
 Wavefunction amplitudes converged. E(Corr)=     -900.41224561    
 Largest amplitude= 5.30D-02

 Z-amplitude iterations

 Iteration Nr.   1
 **********************
 DD1Dir will call FoFMem   1 times, MxPair=       110
 NAB=    55 NAA=     0 NBB=     0.
 DE(Z)= -0.45240041     E(Z)=     -900.40335973     Delta= 8.89D-03
 NORM(A)=   0.10822140D+01
 Iteration Nr.   2
 **********************
 DD1Dir will call FoFMem   1 times, MxPair=       110
 NAB=    55 NAA=     0 NBB=     0.
 DE(Z)= -0.45240006     E(Z)=     -900.40335939     Delta= 3.43D-07
 NORM(A)=   0.10822122D+01
 Iteration Nr.   3
 **********************
 DD1Dir will call FoFMem   1 times, MxPair=       110
 NAB=    55 NAA=     0 NBB=     0.
 DE(Z)= -0.45239958     E(Z)=     -900.40335890     Delta= 4.86D-07
 NORM(A)=   0.10822111D+01
 Iteration Nr.   4
 **********************
 DD1Dir will call FoFMem   1 times, MxPair=       110
 NAB=    55 NAA=     0 NBB=     0.
 DE(Z)= -0.45239918     E(Z)=     -900.40335850     Delta= 4.00D-07
 NORM(A)=   0.10821994D+01
 Iteration Nr.   5
 **********************
 DD1Dir will call FoFMem   1 times, MxPair=       110
 NAB=    55 NAA=     0 NBB=     0.
 DE(Z)= -0.45239535     E(Z)=     -900.40335467     Delta= 3.83D-06
 NORM(A)=   0.10761907D+01
 Iteration Nr.   6
 **********************
 DD1Dir will call FoFMem   1 times, MxPair=       110
 NAB=    55 NAA=     0 NBB=     0.
 DE(Z)= -0.45027005     E(Z)=     -900.40122937     Delta= 2.13D-03
 NORM(A)=   0.10761935D+01
 Iteration Nr.   7
 **********************
 DD1Dir will call FoFMem   1 times, MxPair=       110
 NAB=    55 NAA=     0 NBB=     0.
 DE(Z)= -0.45027111     E(Z)=     -900.40123043     Delta=-1.06D-06
 NORM(A)=   0.10761919D+01
 Iteration Nr.   8
 **********************
 DD1Dir will call FoFMem   1 times, MxPair=       110
 NAB=    55 NAA=     0 NBB=     0.
 DE(Z)= -0.45027120     E(Z)=     -900.40123053     Delta=-9.40D-08
 NORM(A)=   0.10761912D+01
 Iteration Nr.   9
 **********************
 DD1Dir will call FoFMem   1 times, MxPair=       110
 NAB=    55 NAA=     0 NBB=     0.
 DE(Z)= -0.45027047     E(Z)=     -900.40122979     Delta= 7.34D-07
 NORM(A)=   0.10761909D+01
 Iteration Nr.  10
 **********************
 DD1Dir will call FoFMem   1 times, MxPair=       110
 NAB=    55 NAA=     0 NBB=     0.
 DE(Z)= -0.45027050     E(Z)=     -900.40122982     Delta=-2.64D-08
 NORM(A)=   0.10761908D+01
 Iteration Nr.  11
 **********************
 DD1Dir will call FoFMem   1 times, MxPair=       110
 NAB=    55 NAA=     0 NBB=     0.
 DE(Z)= -0.45027040     E(Z)=     -900.40122972     Delta= 9.55D-08
 NORM(A)=   0.10761908D+01
 Iteration Nr.  12
 **********************
 DD1Dir will call FoFMem   1 times, MxPair=       110
 NAB=    55 NAA=     0 NBB=     0.
 DE(Z)= -0.45027042     E(Z)=     -900.40122974     Delta=-1.62D-08
 NORM(A)=   0.10761909D+01
 Iteration Nr.  13
 **********************
 DD1Dir will call FoFMem   1 times, MxPair=       110
 NAB=    55 NAA=     0 NBB=     0.
 DE(Z)= -0.45027042     E(Z)=     -900.40122975     Delta=-8.75D-09
 NORM(A)=   0.10761909D+01
 Z-amplitudes converged.
 Discarding MO integrals.
          IDoAtm=1111
          Differentiating once with respect to electric field.
                with respect to dipole field.
          Differentiating once with respect to nuclear coordinates.
 Keep R1 ints in memory in canonical form, NReq=2031170.
          There are     1 degrees of freedom in the 1st order CPHF.  IDoFFX=0 NUNeed=     1.
 LinEq1:  Iter=  0 NonCon=     1 RMS=4.70D-03 Max=4.76D-02 NDo=     1
 AX will form     1 AO Fock derivatives at one time.
 LinEq1:  Iter=  1 NonCon=     1 RMS=1.29D-03 Max=1.04D-02 NDo=     1
 LinEq1:  Iter=  2 NonCon=     1 RMS=3.76D-04 Max=3.24D-03 NDo=     1
 LinEq1:  Iter=  3 NonCon=     1 RMS=1.10D-04 Max=8.51D-04 NDo=     1
 LinEq1:  Iter=  4 NonCon=     1 RMS=2.82D-05 Max=2.00D-04 NDo=     1
 LinEq1:  Iter=  5 NonCon=     1 RMS=6.91D-06 Max=6.14D-05 NDo=     1
 LinEq1:  Iter=  6 NonCon=     1 RMS=1.83D-06 Max=2.44D-05 NDo=     1
 LinEq1:  Iter=  7 NonCon=     1 RMS=4.66D-07 Max=3.64D-06 NDo=     1
 LinEq1:  Iter=  8 NonCon=     1 RMS=9.20D-08 Max=5.92D-07 NDo=     1
 LinEq1:  Iter=  9 NonCon=     1 RMS=1.86D-08 Max=1.73D-07 NDo=     1
 LinEq1:  Iter= 10 NonCon=     1 RMS=3.12D-09 Max=2.38D-08 NDo=     1
 LinEq1:  Iter= 11 NonCon=     1 RMS=4.57D-10 Max=3.05D-09 NDo=     1
 LinEq1:  Iter= 12 NonCon=     0 RMS=8.57D-11 Max=5.65D-10 NDo=     1
 Linear equations converged to 1.000D-10 1.000D-09 after    12 iterations.
 End of Minotr F.D. properties file   721 does not exist.
 End of Minotr F.D. properties file   722 does not exist.
 End of Minotr F.D. properties file   788 does not exist.

 **********************************************************************

            Population analysis using the CC Density.

 **********************************************************************

 Alpha  occ. eigenvalues -- -104.80349 -80.04309 -26.30381 -10.56787  -8.04257
 Alpha  occ. eigenvalues --   -8.03938  -8.03909  -7.60298  -5.50139  -5.50007
 Alpha  occ. eigenvalues --   -5.49773  -1.58880  -1.12126  -0.85913  -0.70778
 Alpha  occ. eigenvalues --   -0.69246  -0.66915  -0.55339  -0.49591  -0.47893
 Alpha  occ. eigenvalues --   -0.40278
 Alpha virt. eigenvalues --    0.11901   0.13003   0.19367   0.43034   0.49921
 Alpha virt. eigenvalues --    0.63172   0.66430   0.68553   0.71381   0.74076
 Alpha virt. eigenvalues --    0.79533   0.81922   0.92060   1.01920   1.02787
 Alpha virt. eigenvalues --    1.05919   1.06642   1.12584   1.19589   1.22453
 Alpha virt. eigenvalues --    1.25836   1.51022   1.54668   1.56130   1.60187
 Alpha virt. eigenvalues --    1.78646   1.84139   2.11179   2.38697   3.43339
 Alpha virt. eigenvalues --    3.43608   3.50102   3.51974   3.87991
          Condensed to atoms (all electrons):
               1          2          3          4
     1  P   13.658013   0.180053   0.269049   0.183166
     2  F    0.180053   9.256764  -0.014250  -0.015107
     3  H    0.269049  -0.014250   0.803392  -0.022176
     4  Cl   0.183166  -0.015107  -0.022176  17.120359
 Mulliken charges:
               1
     1  P    0.709718
     2  F   -0.407461
     3  H   -0.036015
     4  Cl  -0.266243
 Sum of Mulliken charges =  -0.00000
 Mulliken charges with hydrogens summed into heavy atoms:
               1
     1  P    0.673703
     2  F   -0.407461
     4  Cl  -0.266243
 Electronic spatial extent (au):  <R**2>=            314.2430
 Charge=             -0.0000 electrons
 Dipole moment (field-independent basis, Debye):
    X=              0.3405    Y=              1.5747    Z=              0.4370  Tot=              1.6693
 Quadrupole moment (field-independent basis, Debye-Ang):
   XX=            -32.2450   YY=            -30.6214   ZZ=            -30.5759
   XY=              1.6224   XZ=              0.3964   YZ=              1.1427
 Traceless Quadrupole moment (field-independent basis, Debye-Ang):
   XX=             -1.0976   YY=              0.5260   ZZ=              0.5715
   XY=              1.6224   XZ=              0.3964   YZ=              1.1427
 Octapole moment (field-independent basis, Debye-Ang**2):
  XXX=              3.2908  YYY=             -5.5842  ZZZ=              0.9703  XYY=              0.2884
  XXY=             -0.0760  XXZ=              0.7291  XZZ=              2.0133  YZZ=             -2.9695
  YYZ=              1.5346  XYZ=              0.9232
 Hexadecapole moment (field-independent basis, Debye-Ang**3):
 XXXX=           -248.2975 YYYY=            -81.3547 ZZZZ=            -42.8571 XXXY=             -0.4818
 XXXZ=              0.5547 YYYX=             -7.5686 YYYZ=              2.2122 ZZZX=              0.9595
 ZZZY=              1.5288 XXYY=            -56.6412 XXZZ=            -49.8532 YYZZ=            -21.6791
 XXYZ=              0.8884 YYXZ=              1.2107 ZZXY=             -3.2682
 N-N= 1.489621357503D+02 E-N=-2.442901681149D+03  KE= 9.001881090221D+02
   1 Symmetry operations used in ECPInt.
 ECPInt:  NShTT=     325 NPrTT=    1493 LenC2=     322 LenP2D=    1210.
 LDataN:  DoStor=T MaxTD1= 5 Len=  102
 Calling FoFJK, ICntrl=  10002127 FMM=F ISym2X=0 I1Cent= 0 IOpClX= 0 NMat=1 NMatS=1 NMatT=0.
 -------------------------------------------------------------------
 Center     Atomic                   Forces (Hartrees/Bohr)
 Number     Number              X              Y              Z
 -------------------------------------------------------------------
      1       15           0.000406585   -0.000070408    0.000042685
      2        9          -0.000155697    0.000185627   -0.000031565
      3        1          -0.000025740   -0.000004375   -0.000039159
      4       17          -0.000225147   -0.000110844    0.000028040
 -------------------------------------------------------------------
 Cartesian Forces:  Max     0.000406585 RMS     0.000157524
 NDeriv=     12 NFrqRd=  0 NDerD0=      0 MskFDP=       0 MskDFD=       0 MskDF0=       0
 Re-enter D2Numr:  atom      1 IXYZ=1 step-down number 1
 Standard basis: def2SVP (5D, 7F)
    55 basis functions,   106 primitive gaussians,    58 cartesian basis functions
    21 alpha electrons       21 beta electrons
       nuclear repulsion energy       148.9143894492 Hartrees.
 NAtoms=    4 NActive=    4 NUniq=    4 SFac= 1.00D+00 NAtFMM=   60 NAOKFM=F Big=F
 Integral buffers will be    131072 words long.
 Raffenetti 1 integral format.
 Two-electron integral symmetry is turned off.
 One-electron integrals computed using PRISM.
   1 Symmetry operations used in ECPInt.
 ECPInt:  NShTT=     325 NPrTT=    1493 LenC2=     322 LenP2D=    1210.
 LDataN:  DoStor=T MaxTD1= 4 Len=   56
 NBasis=    55 RedAO= T EigKep=  1.68D-02  NBF=    55
 NBsUse=    55 1.00D-06 EigRej= -1.00D+00 NBFU=    55
 Initial guess from the checkpoint file:  "/tmp/webmo-1487/54/Gau-4898.chk"
 B after Tr=    -0.000000    0.000675    0.000000
         Rot=    1.000000   -0.000061   -0.000000   -0.000065 Ang=  -0.01 deg.
 Keep R1 ints in memory in canonical form, NReq=2030168.
 Requested convergence on RMS density matrix=1.00D-08 within 128 cycles.
 Requested convergence on MAX density matrix=1.00D-06.
 Requested convergence on             energy=1.00D-06.
 No special actions if energy rises.
 SCF Done:  E(RHF) =  -899.950949513     A.U. after    8 cycles
            NFock=  8  Conv=0.57D-08     -V/T= 2.0003
 ExpMin= 1.05D-01 ExpMax= 1.04D+04 ExpMxC= 1.57D+03 IAcc=3 IRadAn=         5 AccDes= 0.00D+00
 HarFok:  IExCor=  205 AccDes= 0.00D+00 IRadAn=         5 IDoV=-2 UseB2=F ITyADJ=14
 ICtDFT= 12500011 ScaDFX=  1.000000  1.000000  1.000000  1.000000
 Range of M.O.s used for correlation:    12    55
 NBasis=    55 NAE=    21 NBE=    21 NFC=    11 NFV=     0
 NROrb=     44 NOA=    10 NOB=    10 NVA=    34 NVB=    34
 Semi-Direct transformation.
 ModeAB=           2 MOrb=            10 LenV=     104642533
 LASXX=       347920 LTotXX=      347920 LenRXX=      347920
 LTotAB=      372350 MaxLAS=      752840 LenRXY=      752840
 NonZer=      775720 LenScr=     1744896 LnRSAI=           0
 LnScr1=           0 LExtra=           0 Total=      2845656
 MaxDsk=          -1 SrtSym=           F ITran=            4
 JobTyp=0 Pass  1:  I=   1 to  10.
 (rs|ai) integrals will be sorted in core.
 Spin components of T(2) and E(2):
     alpha-alpha T2 =       0.1670200292D-01 E2=     -0.5555565725D-01
     alpha-beta  T2 =       0.1001651550D+00 E2=     -0.3205766508D+00
     beta-beta   T2 =       0.1670200292D-01 E2=     -0.5555565725D-01
 ANorm=    0.1064692050D+01
 E2 =    -0.4316879653D+00 EUMP2 =    -0.90038263747795D+03
 Keep R2 and R3 ints in memory in canonical form, NReq=3220223.
 CIDS: In Core Option IDoMem=           1.
 Iterations=  50 Convergence= 0.100D-07
 Produce multiple copies of IABC intergrals
 Iteration Nr.   1
 **********************
 DD1Dir will call FoFMem   1 times, MxPair=       110
 NAB=    55 NAA=     0 NBB=     0.
 MP4(R+Q)=  0.60686890D-02
 E3=       -0.22655689D-01        EUMP3=      -0.90040529317D+03
 E4(DQ)=   -0.36353166D-02        UMP4(DQ)=   -0.90040892848D+03
 E4(SDQ)=  -0.74896008D-02        UMP4(SDQ)=  -0.90041278277D+03
 DE(Corr)= -0.44799006     E(Corr)=     -900.39893958    
 NORM(A)=   0.10744420D+01
 Iteration Nr.   2
 **********************
 DD1Dir will call FoFMem   1 times, MxPair=       110
 NAB=    55 NAA=     0 NBB=     0.
 DE(Corr)= -0.45903553     E(CORR)=     -900.40998504     Delta=-1.10D-02
 NORM(A)=   0.10801150D+01
 Iteration Nr.   3
 **********************
 DD1Dir will call FoFMem   1 times, MxPair=       110
 NAB=    55 NAA=     0 NBB=     0.
 DE(Corr)= -0.46007473     E(CORR)=     -900.41102425     Delta=-1.04D-03
 NORM(A)=   0.10817133D+01
 Iteration Nr.   4
 **********************
 DD1Dir will call FoFMem   1 times, MxPair=       110
 NAB=    55 NAA=     0 NBB=     0.
 DE(Corr)= -0.46119922     E(CORR)=     -900.41214874     Delta=-1.12D-03
 NORM(A)=   0.10820941D+01
 Iteration Nr.   5
 **********************
 DD1Dir will call FoFMem   1 times, MxPair=       110
 NAB=    55 NAA=     0 NBB=     0.
 DE(Corr)= -0.46128323     E(CORR)=     -900.41223274     Delta=-8.40D-05
 NORM(A)=   0.10822091D+01
 Iteration Nr.   6
 **********************
 DD1Dir will call FoFMem   1 times, MxPair=       110
 NAB=    55 NAA=     0 NBB=     0.
 DE(Corr)= -0.46129515     E(CORR)=     -900.41224466     Delta=-1.19D-05
 NORM(A)=   0.10822286D+01
 Iteration Nr.   7
 **********************
 DD1Dir will call FoFMem   1 times, MxPair=       110
 NAB=    55 NAA=     0 NBB=     0.
 DE(Corr)= -0.46129623     E(CORR)=     -900.41224574     Delta=-1.08D-06
 NORM(A)=   0.10822310D+01
 Iteration Nr.   8
 **********************
 DD1Dir will call FoFMem   1 times, MxPair=       110
 NAB=    55 NAA=     0 NBB=     0.
 DE(Corr)= -0.46129423     E(CORR)=     -900.41224375     Delta= 1.99D-06
 NORM(A)=   0.10822323D+01
 Iteration Nr.   9
 **********************
 DD1Dir will call FoFMem   1 times, MxPair=       110
 NAB=    55 NAA=     0 NBB=     0.
 DE(Corr)= -0.46129548     E(CORR)=     -900.41224499     Delta=-1.25D-06
 NORM(A)=   0.10822328D+01
 Iteration Nr.  10
 **********************
 DD1Dir will call FoFMem   1 times, MxPair=       110
 NAB=    55 NAA=     0 NBB=     0.
 DE(Corr)= -0.46129547     E(CORR)=     -900.41224498     Delta= 1.25D-08
 NORM(A)=   0.10822333D+01
 Iteration Nr.  11
 **********************
 DD1Dir will call FoFMem   1 times, MxPair=       110
 NAB=    55 NAA=     0 NBB=     0.
 DE(Corr)= -0.46129587     E(CORR)=     -900.41224538     Delta=-4.02D-07
 NORM(A)=   0.10822335D+01
 Iteration Nr.  12
 **********************
 DD1Dir will call FoFMem   1 times, MxPair=       110
 NAB=    55 NAA=     0 NBB=     0.
 DE(Corr)= -0.46129588     E(CORR)=     -900.41224539     Delta=-1.06D-08
 NORM(A)=   0.10822336D+01
 Iteration Nr.  13
 **********************
 DD1Dir will call FoFMem   1 times, MxPair=       110
 NAB=    55 NAA=     0 NBB=     0.
 DE(Corr)= -0.46129593     E(CORR)=     -900.41224544     Delta=-4.69D-08
 NORM(A)=   0.10822336D+01
 Iteration Nr.  14
 **********************
 DD1Dir will call FoFMem   1 times, MxPair=       110
 NAB=    55 NAA=     0 NBB=     0.
 DE(Corr)= -0.46129593     E(CORR)=     -900.41224545     Delta=-3.40D-09
 NORM(A)=   0.10822337D+01
 Wavefunction amplitudes converged. E(Corr)=     -900.41224545    
 Largest amplitude= 5.28D-02

 Z-amplitude iterations

 Iteration Nr.   1
 **********************
 DD1Dir will call FoFMem   1 times, MxPair=       110
 NAB=    55 NAA=     0 NBB=     0.
 DE(Z)= -0.45240632     E(Z)=     -900.40335583     Delta= 8.89D-03
 NORM(A)=   0.10822328D+01
 Iteration Nr.   2
 **********************
 DD1Dir will call FoFMem   1 times, MxPair=       110
 NAB=    55 NAA=     0 NBB=     0.
 DE(Z)= -0.45240596     E(Z)=     -900.40335547     Delta= 3.62D-07
 NORM(A)=   0.10822310D+01
 Iteration Nr.   3
 **********************
 DD1Dir will call FoFMem   1 times, MxPair=       110
 NAB=    55 NAA=     0 NBB=     0.
 DE(Z)= -0.45240546     E(Z)=     -900.40335497     Delta= 4.99D-07
 NORM(A)=   0.10822306D+01
 Iteration Nr.   4
 **********************
 DD1Dir will call FoFMem   1 times, MxPair=       110
 NAB=    55 NAA=     0 NBB=     0.
 DE(Z)= -0.45240530     E(Z)=     -900.40335481     Delta= 1.62D-07
 NORM(A)=   0.10822133D+01
 Iteration Nr.   5
 **********************
 DD1Dir will call FoFMem   1 times, MxPair=       110
 NAB=    55 NAA=     0 NBB=     0.
 DE(Z)= -0.45239963     E(Z)=     -900.40334915     Delta= 5.66D-06
 NORM(A)=   0.10762040D+01
 Iteration Nr.   6
 **********************
 DD1Dir will call FoFMem   1 times, MxPair=       110
 NAB=    55 NAA=     0 NBB=     0.
 DE(Z)= -0.45027451     E(Z)=     -900.40122403     Delta= 2.13D-03
 NORM(A)=   0.10762062D+01
 Iteration Nr.   7
 **********************
 DD1Dir will call FoFMem   1 times, MxPair=       110
 NAB=    55 NAA=     0 NBB=     0.
 DE(Z)= -0.45027556     E(Z)=     -900.40122508     Delta=-1.05D-06
 NORM(A)=   0.10762044D+01
 Iteration Nr.   8
 **********************
 DD1Dir will call FoFMem   1 times, MxPair=       110
 NAB=    55 NAA=     0 NBB=     0.
 DE(Z)= -0.45027554     E(Z)=     -900.40122505     Delta= 2.53D-08
 NORM(A)=   0.10762040D+01
 Iteration Nr.   9
 **********************
 DD1Dir will call FoFMem   1 times, MxPair=       110
 NAB=    55 NAA=     0 NBB=     0.
 DE(Z)= -0.45027491     E(Z)=     -900.40122442     Delta= 6.28D-07
 NORM(A)=   0.10762038D+01
 Iteration Nr.  10
 **********************
 DD1Dir will call FoFMem   1 times, MxPair=       110
 NAB=    55 NAA=     0 NBB=     0.
 DE(Z)= -0.45027505     E(Z)=     -900.40122456     Delta=-1.40D-07
 NORM(A)=   0.10762038D+01
 Iteration Nr.  11
 **********************
 DD1Dir will call FoFMem   1 times, MxPair=       110
 NAB=    55 NAA=     0 NBB=     0.
 DE(Z)= -0.45027495     E(Z)=     -900.40122447     Delta= 9.68D-08
 NORM(A)=   0.10762038D+01
 Iteration Nr.  12
 **********************
 DD1Dir will call FoFMem   1 times, MxPair=       110
 NAB=    55 NAA=     0 NBB=     0.
 DE(Z)= -0.45027497     E(Z)=     -900.40122448     Delta=-1.82D-08
 NORM(A)=   0.10762039D+01
 Iteration Nr.  13
 **********************
 DD1Dir will call FoFMem   1 times, MxPair=       110
 NAB=    55 NAA=     0 NBB=     0.
 DE(Z)= -0.45027498     E(Z)=     -900.40122449     Delta=-9.94D-09
 NORM(A)=   0.10762039D+01
 Z-amplitudes converged.
 Discarding MO integrals.
          IDoAtm=1111
          Differentiating once with respect to electric field.
                with respect to dipole field.
          Differentiating once with respect to nuclear coordinates.
 Keep R1 ints in memory in canonical form, NReq=2031170.
          There are     1 degrees of freedom in the 1st order CPHF.  IDoFFX=0 NUNeed=     1.
 LinEq1:  Iter=  0 NonCon=     1 RMS=4.71D-03 Max=4.80D-02 NDo=     1
 AX will form     1 AO Fock derivatives at one time.
 LinEq1:  Iter=  1 NonCon=     1 RMS=1.29D-03 Max=1.04D-02 NDo=     1
 LinEq1:  Iter=  2 NonCon=     1 RMS=3.77D-04 Max=3.24D-03 NDo=     1
 LinEq1:  Iter=  3 NonCon=     1 RMS=1.10D-04 Max=8.52D-04 NDo=     1
 LinEq1:  Iter=  4 NonCon=     1 RMS=2.82D-05 Max=1.99D-04 NDo=     1
 LinEq1:  Iter=  5 NonCon=     1 RMS=6.92D-06 Max=6.12D-05 NDo=     1
 LinEq1:  Iter=  6 NonCon=     1 RMS=1.83D-06 Max=2.42D-05 NDo=     1
 LinEq1:  Iter=  7 NonCon=     1 RMS=4.66D-07 Max=3.63D-06 NDo=     1
 LinEq1:  Iter=  8 NonCon=     1 RMS=9.21D-08 Max=6.01D-07 NDo=     1
 LinEq1:  Iter=  9 NonCon=     1 RMS=1.86D-08 Max=1.76D-07 NDo=     1
 LinEq1:  Iter= 10 NonCon=     1 RMS=3.13D-09 Max=2.38D-08 NDo=     1
 LinEq1:  Iter= 11 NonCon=     1 RMS=4.57D-10 Max=3.05D-09 NDo=     1
 LinEq1:  Iter= 12 NonCon=     0 RMS=8.57D-11 Max=5.64D-10 NDo=     1
 Linear equations converged to 1.000D-10 1.000D-09 after    12 iterations.
 End of Minotr F.D. properties file   721 does not exist.
 End of Minotr F.D. properties file   722 does not exist.
 End of Minotr F.D. properties file   788 does not exist.

 **********************************************************************

            Population analysis using the CC Density.

 **********************************************************************

 Alpha  occ. eigenvalues -- -104.80336 -80.04324 -26.30380 -10.56770  -8.04240
 Alpha  occ. eigenvalues --   -8.03922  -8.03892  -7.60311  -5.50151  -5.50021
 Alpha  occ. eigenvalues --   -5.49786  -1.58871  -1.12089  -0.85919  -0.70774
 Alpha  occ. eigenvalues --   -0.69239  -0.66908  -0.55320  -0.49570  -0.47874
 Alpha  occ. eigenvalues --   -0.40297
 Alpha virt. eigenvalues --    0.11859   0.12987   0.19361   0.43048   0.49912
 Alpha virt. eigenvalues --    0.63187   0.66439   0.68562   0.71371   0.74055
 Alpha virt. eigenvalues --    0.79518   0.81916   0.92051   1.01942   1.02804
 Alpha virt. eigenvalues --    1.05924   1.06645   1.12574   1.19550   1.22435
 Alpha virt. eigenvalues --    1.25826   1.51016   1.54666   1.56124   1.60163
 Alpha virt. eigenvalues --    1.78647   1.84126   2.11186   2.38718   3.43344
 Alpha virt. eigenvalues --    3.43613   3.50096   3.51971   3.87952
          Condensed to atoms (all electrons):
               1          2          3          4
     1  P   13.657378   0.180061   0.269178   0.183328
     2  F    0.180061   9.256863  -0.014239  -0.015127
     3  H    0.269178  -0.014239   0.803103  -0.022163
     4  Cl   0.183328  -0.015127  -0.022163  17.120577
 Mulliken charges:
               1
     1  P    0.710055
     2  F   -0.407559
     3  H   -0.035880
     4  Cl  -0.266616
 Sum of Mulliken charges =  -0.00000
 Mulliken charges with hydrogens summed into heavy atoms:
               1
     1  P    0.674175
     2  F   -0.407559
     4  Cl  -0.266616
 Electronic spatial extent (au):  <R**2>=            314.3657
 Charge=             -0.0000 electrons
 Dipole moment (field-independent basis, Debye):
    X=              0.3474    Y=              1.5807    Z=              0.4366  Tot=              1.6763
 Quadrupole moment (field-independent basis, Debye-Ang):
   XX=            -32.2463   YY=            -30.6178   ZZ=            -30.5738
   XY=              1.6270   XZ=              0.3963   YZ=              1.1423
 Traceless Quadrupole moment (field-independent basis, Debye-Ang):
   XX=             -1.1004   YY=              0.5282   ZZ=              0.5722
   XY=              1.6270   XZ=              0.3963   YZ=              1.1423
 Octapole moment (field-independent basis, Debye-Ang**2):
  XXX=              3.2736  YYY=             -5.6097  ZZZ=              0.9714  XYY=              0.2808
  XXY=             -0.0855  XXZ=              0.7311  XZZ=              2.0065  YZZ=             -2.9770
  YYZ=              1.5363  XYZ=              0.9247
 Hexadecapole moment (field-independent basis, Debye-Ang**3):
 XXXX=           -248.3925 YYYY=            -81.4251 ZZZZ=            -42.8440 XXXY=             -0.5105
 XXXZ=              0.5600 YYYX=             -7.6072 YYYZ=              2.2195 ZZZX=              0.9644
 ZZZY=              1.5342 XXYY=            -56.6687 XXZZ=            -49.8678 YYZZ=            -21.6904
 XXYZ=              0.8914 YYXZ=              1.2147 ZZXY=             -3.2808
 N-N= 1.489143894492D+02 E-N=-2.442806685737D+03  KE= 9.001861939932D+02
   1 Symmetry operations used in ECPInt.
 ECPInt:  NShTT=     325 NPrTT=    1493 LenC2=     322 LenP2D=    1210.
 LDataN:  DoStor=T MaxTD1= 5 Len=  102
 Calling FoFJK, ICntrl=  10002127 FMM=F ISym2X=0 I1Cent= 0 IOpClX= 0 NMat=1 NMatS=1 NMatT=0.
 -------------------------------------------------------------------
 Center     Atomic                   Forces (Hartrees/Bohr)
 Number     Number              X              Y              Z
 -------------------------------------------------------------------
      1       15           0.000045797   -0.000561050    0.000041403
      2        9          -0.000190958    0.000401293   -0.000070341
      3        1           0.000018374    0.000058420    0.000066394
      4       17           0.000126787    0.000101337   -0.000037456
 -------------------------------------------------------------------
 Cartesian Forces:  Max     0.000561050 RMS     0.000215434
 NDeriv=     12 NFrqRd=  0 NDerD0=      0 MskFDP=       0 MskDFD=       0 MskDF0=       0
 Re-enter D2Numr:  atom      1 IXYZ=2 step-up   number 1
 Standard basis: def2SVP (5D, 7F)
    55 basis functions,   106 primitive gaussians,    58 cartesian basis functions
    21 alpha electrons       21 beta electrons
       nuclear repulsion energy       148.9815789829 Hartrees.
 NAtoms=    4 NActive=    4 NUniq=    4 SFac= 1.00D+00 NAtFMM=   60 NAOKFM=F Big=F
 Integral buffers will be    131072 words long.
 Raffenetti 1 integral format.
 Two-electron integral symmetry is turned off.
 One-electron integrals computed using PRISM.
   1 Symmetry operations used in ECPInt.
 ECPInt:  NShTT=     325 NPrTT=    1493 LenC2=     322 LenP2D=    1210.
 LDataN:  DoStor=T MaxTD1= 4 Len=   56
 NBasis=    55 RedAO= T EigKep=  1.68D-02  NBF=    55
 NBsUse=    55 1.00D-06 EigRej= -1.00D+00 NBFU=    55
 Initial guess from the checkpoint file:  "/tmp/webmo-1487/54/Gau-4898.chk"
 B after Tr=     0.000000   -0.000675   -0.000000
         Rot=    1.000000    0.000061   -0.000000    0.000065 Ang=   0.01 deg.
 Keep R1 ints in memory in canonical form, NReq=2030168.
 Requested convergence on RMS density matrix=1.00D-08 within 128 cycles.
 Requested convergence on MAX density matrix=1.00D-06.
 Requested convergence on             energy=1.00D-06.
 No special actions if energy rises.
 SCF Done:  E(RHF) =  -899.950996190     A.U. after    8 cycles
            NFock=  8  Conv=0.57D-08     -V/T= 2.0002
 ExpMin= 1.05D-01 ExpMax= 1.04D+04 ExpMxC= 1.57D+03 IAcc=3 IRadAn=         5 AccDes= 0.00D+00
 HarFok:  IExCor=  205 AccDes= 0.00D+00 IRadAn=         5 IDoV=-2 UseB2=F ITyADJ=14
 ICtDFT= 12500011 ScaDFX=  1.000000  1.000000  1.000000  1.000000
 Range of M.O.s used for correlation:    12    55
 NBasis=    55 NAE=    21 NBE=    21 NFC=    11 NFV=     0
 NROrb=     44 NOA=    10 NOB=    10 NVA=    34 NVB=    34
 Semi-Direct transformation.
 ModeAB=           2 MOrb=            10 LenV=     104642533
 LASXX=       347920 LTotXX=      347920 LenRXX=      347920
 LTotAB=      372350 MaxLAS=      752840 LenRXY=      752840
 NonZer=      775720 LenScr=     1744896 LnRSAI=           0
 LnScr1=           0 LExtra=           0 Total=      2845656
 MaxDsk=          -1 SrtSym=           F ITran=            4
 JobTyp=0 Pass  1:  I=   1 to  10.
 (rs|ai) integrals will be sorted in core.
 Spin components of T(2) and E(2):
     alpha-alpha T2 =       0.1669869206D-01 E2=     -0.5555510950D-01
     alpha-beta  T2 =       0.1001283404D+00 E2=     -0.3205365530D+00
     beta-beta   T2 =       0.1669869206D-01 E2=     -0.5555510950D-01
 ANorm=    0.1064671651D+01
 E2 =    -0.4316467720D+00 EUMP2 =    -0.90038264296230D+03
 Keep R2 and R3 ints in memory in canonical form, NReq=3220223.
 CIDS: In Core Option IDoMem=           1.
 Iterations=  50 Convergence= 0.100D-07
 Produce multiple copies of IABC intergrals
 Iteration Nr.   1
 **********************
 DD1Dir will call FoFMem   1 times, MxPair=       110
 NAB=    55 NAA=     0 NBB=     0.
 MP4(R+Q)=  0.60655616D-02
 E3=       -0.22658914D-01        EUMP3=      -0.90040530188D+03
 E4(DQ)=   -0.36314371D-02        UMP4(DQ)=   -0.90040893331D+03
 E4(SDQ)=  -0.74789101D-02        UMP4(SDQ)=  -0.90041278079D+03
 DE(Corr)= -0.44795591     E(Corr)=     -900.39895210    
 NORM(A)=   0.10744180D+01
 Iteration Nr.   2
 **********************
 DD1Dir will call FoFMem   1 times, MxPair=       110
 NAB=    55 NAA=     0 NBB=     0.
 DE(Corr)= -0.45898968     E(CORR)=     -900.40998587     Delta=-1.10D-02
 NORM(A)=   0.10800848D+01
 Iteration Nr.   3
 **********************
 DD1Dir will call FoFMem   1 times, MxPair=       110
 NAB=    55 NAA=     0 NBB=     0.
 DE(Corr)= -0.46003081     E(CORR)=     -900.41102700     Delta=-1.04D-03
 NORM(A)=   0.10816789D+01
 Iteration Nr.   4
 **********************
 DD1Dir will call FoFMem   1 times, MxPair=       110
 NAB=    55 NAA=     0 NBB=     0.
 DE(Corr)= -0.46115268     E(CORR)=     -900.41214887     Delta=-1.12D-03
 NORM(A)=   0.10820582D+01
 Iteration Nr.   5
 **********************
 DD1Dir will call FoFMem   1 times, MxPair=       110
 NAB=    55 NAA=     0 NBB=     0.
 DE(Corr)= -0.46123641     E(CORR)=     -900.41223260     Delta=-8.37D-05
 NORM(A)=   0.10821727D+01
 Iteration Nr.   6
 **********************
 DD1Dir will call FoFMem   1 times, MxPair=       110
 NAB=    55 NAA=     0 NBB=     0.
 DE(Corr)= -0.46124830     E(CORR)=     -900.41224449     Delta=-1.19D-05
 NORM(A)=   0.10821921D+01
 Iteration Nr.   7
 **********************
 DD1Dir will call FoFMem   1 times, MxPair=       110
 NAB=    55 NAA=     0 NBB=     0.
 DE(Corr)= -0.46124936     E(CORR)=     -900.41224555     Delta=-1.07D-06
 NORM(A)=   0.10821945D+01
 Iteration Nr.   8
 **********************
 DD1Dir will call FoFMem   1 times, MxPair=       110
 NAB=    55 NAA=     0 NBB=     0.
 DE(Corr)= -0.46124738     E(CORR)=     -900.41224357     Delta= 1.99D-06
 NORM(A)=   0.10821957D+01
 Iteration Nr.   9
 **********************
 DD1Dir will call FoFMem   1 times, MxPair=       110
 NAB=    55 NAA=     0 NBB=     0.
 DE(Corr)= -0.46124863     E(CORR)=     -900.41224482     Delta=-1.25D-06
 NORM(A)=   0.10821963D+01
 Iteration Nr.  10
 **********************
 DD1Dir will call FoFMem   1 times, MxPair=       110
 NAB=    55 NAA=     0 NBB=     0.
 DE(Corr)= -0.46124861     E(CORR)=     -900.41224480     Delta= 1.29D-08
 NORM(A)=   0.10821967D+01
 Iteration Nr.  11
 **********************
 DD1Dir will call FoFMem   1 times, MxPair=       110
 NAB=    55 NAA=     0 NBB=     0.
 DE(Corr)= -0.46124901     E(CORR)=     -900.41224520     Delta=-4.01D-07
 NORM(A)=   0.10821969D+01
 Iteration Nr.  12
 **********************
 DD1Dir will call FoFMem   1 times, MxPair=       110
 NAB=    55 NAA=     0 NBB=     0.
 DE(Corr)= -0.46124902     E(CORR)=     -900.41224521     Delta=-1.04D-08
 NORM(A)=   0.10821970D+01
 Iteration Nr.  13
 **********************
 DD1Dir will call FoFMem   1 times, MxPair=       110
 NAB=    55 NAA=     0 NBB=     0.
 DE(Corr)= -0.46124907     E(CORR)=     -900.41224526     Delta=-4.65D-08
 NORM(A)=   0.10821971D+01
 Iteration Nr.  14
 **********************
 DD1Dir will call FoFMem   1 times, MxPair=       110
 NAB=    55 NAA=     0 NBB=     0.
 DE(Corr)= -0.46124907     E(CORR)=     -900.41224526     Delta=-3.36D-09
 NORM(A)=   0.10821971D+01
 Wavefunction amplitudes converged. E(Corr)=     -900.41224526    
 Largest amplitude= 5.29D-02

 Z-amplitude iterations

 Iteration Nr.   1
 **********************
 DD1Dir will call FoFMem   1 times, MxPair=       110
 NAB=    55 NAA=     0 NBB=     0.
 DE(Z)= -0.45236617     E(Z)=     -900.40336236     Delta= 8.88D-03
 NORM(A)=   0.10821962D+01
 Iteration Nr.   2
 **********************
 DD1Dir will call FoFMem   1 times, MxPair=       110
 NAB=    55 NAA=     0 NBB=     0.
 DE(Z)= -0.45236582     E(Z)=     -900.40336201     Delta= 3.56D-07
 NORM(A)=   0.10821932D+01
 Iteration Nr.   3
 **********************
 DD1Dir will call FoFMem   1 times, MxPair=       110
 NAB=    55 NAA=     0 NBB=     0.
[...]
 DE(Z)= -0.45025556     E(Z)=     -900.40123012     Delta= 6.63D-07
 NORM(A)=   0.10761904D+01
 Iteration Nr.  10
 **********************
 DD1Dir will call FoFMem   1 times, MxPair=       110
 NAB=    55 NAA=     0 NBB=     0.
 DE(Z)= -0.45025561     E(Z)=     -900.40123018     Delta=-5.38D-08
 NORM(A)=   0.10761903D+01
 Iteration Nr.  11
 **********************
 DD1Dir will call FoFMem   1 times, MxPair=       110
 NAB=    55 NAA=     0 NBB=     0.
 DE(Z)= -0.45025552     E(Z)=     -900.40123008     Delta= 9.65D-08
 NORM(A)=   0.10761903D+01
 Iteration Nr.  12
 **********************
 DD1Dir will call FoFMem   1 times, MxPair=       110
 NAB=    55 NAA=     0 NBB=     0.
 DE(Z)= -0.45025553     E(Z)=     -900.40123009     Delta=-1.26D-08
 NORM(A)=   0.10761904D+01
 Iteration Nr.  13
 **********************
 DD1Dir will call FoFMem   1 times, MxPair=       110
 NAB=    55 NAA=     0 NBB=     0.
 DE(Z)= -0.45025554     E(Z)=     -900.40123011     Delta=-1.25D-08
 NORM(A)=   0.10761904D+01
 Iteration Nr.  14
 **********************
 DD1Dir will call FoFMem   1 times, MxPair=       110
 NAB=    55 NAA=     0 NBB=     0.
 DE(Z)= -0.45025554     E(Z)=     -900.40123011     Delta=-1.23D-09
 NORM(A)=   0.10761904D+01
 Z-amplitudes converged.
 Discarding MO integrals.
          IDoAtm=1111
          Differentiating once with respect to electric field.
                with respect to dipole field.
          Differentiating once with respect to nuclear coordinates.
 Keep R1 ints in memory in canonical form, NReq=2031170.
          There are     1 degrees of freedom in the 1st order CPHF.  IDoFFX=0 NUNeed=     1.
 LinEq1:  Iter=  0 NonCon=     1 RMS=4.70D-03 Max=4.79D-02 NDo=     1
 AX will form     1 AO Fock derivatives at one time.
 LinEq1:  Iter=  1 NonCon=     1 RMS=1.29D-03 Max=1.04D-02 NDo=     1
 LinEq1:  Iter=  2 NonCon=     1 RMS=3.76D-04 Max=3.24D-03 NDo=     1
 LinEq1:  Iter=  3 NonCon=     1 RMS=1.10D-04 Max=8.52D-04 NDo=     1
 LinEq1:  Iter=  4 NonCon=     1 RMS=2.82D-05 Max=2.00D-04 NDo=     1
 LinEq1:  Iter=  5 NonCon=     1 RMS=6.91D-06 Max=6.12D-05 NDo=     1
 LinEq1:  Iter=  6 NonCon=     1 RMS=1.83D-06 Max=2.42D-05 NDo=     1
 LinEq1:  Iter=  7 NonCon=     1 RMS=4.66D-07 Max=3.63D-06 NDo=     1
 LinEq1:  Iter=  8 NonCon=     1 RMS=9.21D-08 Max=5.99D-07 NDo=     1
 LinEq1:  Iter=  9 NonCon=     1 RMS=1.86D-08 Max=1.75D-07 NDo=     1
 LinEq1:  Iter= 10 NonCon=     1 RMS=3.12D-09 Max=2.38D-08 NDo=     1
 LinEq1:  Iter= 11 NonCon=     1 RMS=4.57D-10 Max=3.04D-09 NDo=     1
 LinEq1:  Iter= 12 NonCon=     0 RMS=8.58D-11 Max=5.64D-10 NDo=     1
 Linear equations converged to 1.000D-10 1.000D-09 after    12 iterations.
 End of Minotr F.D. properties file   721 does not exist.
 End of Minotr F.D. properties file   722 does not exist.
 End of Minotr F.D. properties file   788 does not exist.

 **********************************************************************

            Population analysis using the CC Density.

 **********************************************************************

 Alpha  occ. eigenvalues -- -104.80338 -80.04314 -26.30400 -10.56773  -8.04244
 Alpha  occ. eigenvalues --   -8.03925  -8.03896  -7.60302  -5.50143  -5.50012
 Alpha  occ. eigenvalues --   -5.49777  -1.58913  -1.12099  -0.85926  -0.70802
 Alpha  occ. eigenvalues --   -0.69269  -0.66929  -0.55324  -0.49575  -0.47879
 Alpha  occ. eigenvalues --   -0.40280
 Alpha virt. eigenvalues --    0.11886   0.13004   0.19367   0.43041   0.49914
 Alpha virt. eigenvalues --    0.63184   0.66445   0.68568   0.71385   0.74077
 Alpha virt. eigenvalues --    0.79542   0.81920   0.92054   1.01937   1.02800
 Alpha virt. eigenvalues --    1.05925   1.06647   1.12591   1.19568   1.22443
 Alpha virt. eigenvalues --    1.25824   1.51018   1.54657   1.56118   1.60165
 Alpha virt. eigenvalues --    1.78635   1.84133   2.11158   2.38701   3.43317
 Alpha virt. eigenvalues --    3.43586   3.50096   3.51971   3.88048
          Condensed to atoms (all electrons):
               1          2          3          4
     1  P   13.657972   0.180142   0.268964   0.183201
     2  F    0.180142   9.256360  -0.014242  -0.015113
     3  H    0.268964  -0.014242   0.803444  -0.022144
     4  Cl   0.183201  -0.015113  -0.022144  17.120606
 Mulliken charges:
               1
     1  P    0.709721
     2  F   -0.407147
     3  H   -0.036022
     4  Cl  -0.266551
 Sum of Mulliken charges =  -0.00000
 Mulliken charges with hydrogens summed into heavy atoms:
               1
     1  P    0.673698
     2  F   -0.407147
     4  Cl  -0.266551
 Electronic spatial extent (au):  <R**2>=            314.3027
 Charge=              0.0000 electrons
 Dipole moment (field-independent basis, Debye):
    X=              0.3474    Y=              1.5743    Z=              0.4377  Tot=              1.6706
 Quadrupole moment (field-independent basis, Debye-Ang):
   XX=            -32.2427   YY=            -30.6213   ZZ=            -30.5764
   XY=              1.6208   XZ=              0.3968   YZ=              1.1426
 Traceless Quadrupole moment (field-independent basis, Debye-Ang):
   XX=             -1.0960   YY=              0.5255   ZZ=              0.5704
   XY=              1.6208   XZ=              0.3968   YZ=              1.1426
 Octapole moment (field-independent basis, Debye-Ang**2):
  XXX=              3.2745  YYY=             -5.5841  ZZZ=              1.0076  XYY=              0.2800
  XXY=             -0.0795  XXZ=              0.7431  XZZ=              2.0045  YZZ=             -2.9693
  YYZ=              1.5472  XYZ=              0.9246
 Hexadecapole moment (field-independent basis, Debye-Ang**3):
 XXXX=           -248.3700 YYYY=            -81.3513 ZZZZ=            -42.8564 XXXY=             -0.5076
 XXXZ=              0.5177 YYYX=             -7.5942 YYYZ=              2.2054 ZZZX=              0.9137
 ZZZY=              1.5211 XXYY=            -56.6577 XXZZ=            -49.8687 YYZZ=            -21.6782
 XXYZ=              0.8906 YYXZ=              1.1981 ZZXY=             -3.2774
 N-N= 1.489491264971D+02 E-N=-2.442875236022D+03  KE= 9.001878757671D+02
   1 Symmetry operations used in ECPInt.
 ECPInt:  NShTT=     325 NPrTT=    1493 LenC2=     322 LenP2D=    1210.
 LDataN:  DoStor=T MaxTD1= 5 Len=  102
 Calling FoFJK, ICntrl=  10002127 FMM=F ISym2X=0 I1Cent= 0 IOpClX= 0 NMat=1 NMatS=1 NMatT=0.
 -------------------------------------------------------------------
 Center     Atomic                   Forces (Hartrees/Bohr)
 Number     Number              X              Y              Z
 -------------------------------------------------------------------
      1       15          -0.000032448    0.000073132   -0.000020982
      2        9           0.000032916   -0.000057803    0.000015261
      3        1          -0.000016868   -0.000020932   -0.000009692
      4       17           0.000016399    0.000005603    0.000015414
 -------------------------------------------------------------------
 Cartesian Forces:  Max     0.000073132 RMS     0.000032728
 NDeriv=     12 NFrqRd=  0 NDerD0=      0 MskFDP=       0 MskDFD=       0 MskDF0=       0
 Re-enter D2Numr:  atom      4 IXYZ=3 step-down number 1
 Maximum difference in off-diagonal FC elements:
 I=  4 J=  3 Difference=    1.0115784643D-05
 Max difference between analytic and numerical forces:
 I=  9 Difference=    6.8640124803D-07
 Full mass-weighted force constant matrix:
 Low frequencies ---   -5.0184   -2.0176   -0.0315    0.4258    0.8914    3.9242
 Low frequencies ---  270.6553  536.9812  861.0108
 Diagonal vibrational polarizability:
       10.1154961       5.5714279       1.3567544
 Harmonic frequencies (cm**-1), IR intensities (KM/Mole), Raman scattering
 activities (A**4/AMU), depolarization ratios for plane and unpolarized
 incident light, reduced masses (AMU), force constants (mDyne/A),
 and normal coordinates:
                      1                      2                      3
                      A                      A                      A
 Frequencies --    270.6553               536.9812               861.0108
 Red. masses --     19.3182                26.2823                17.8294
 Frc consts  --      0.8338                 4.4651                 7.7876
 IR Inten    --      4.3825                90.6314               136.1937
  Atom  AN      X      Y      Z        X      Y      Z        X      Y      Z
     1  15    -0.03  -0.30   0.02     0.60   0.32  -0.04     0.25  -0.39   0.03
     2   9     0.73   0.18  -0.02    -0.07  -0.07   0.01    -0.41   0.64  -0.06
     3   1    -0.15  -0.40   0.04     0.37   0.24  -0.00    -0.34  -0.30   0.05
     4  17    -0.36   0.18  -0.01    -0.51  -0.25   0.03     0.01   0.01   0.01
                      4                      5                      6
                      A                      A                      A
 Frequencies --    918.5075              1004.7820              2426.3838
 Red. masses --      1.0818                 1.1039                 1.0408
 Frc consts  --      0.5377                 0.6566                 3.6102
 IR Inten    --     24.8500                26.6399               115.6142
  Atom  AN      X      Y      Z        X      Y      Z        X      Y      Z
     1  15    -0.02  -0.02   0.03     0.01  -0.02   0.04    -0.00  -0.01  -0.03
     2   9    -0.00   0.02  -0.01     0.01  -0.02  -0.05     0.00  -0.00   0.00
     3   1     0.89   0.43  -0.12    -0.48   0.86  -0.16     0.04   0.24   0.97
     4  17    -0.01  -0.00  -0.02    -0.00   0.00  -0.00    -0.00   0.00   0.00

 -------------------
 - Thermochemistry -
 -------------------
 Temperature   298.150 Kelvin.  Pressure   1.00000 Atm.
 Atom     1 has atomic number 15 and mass  30.97376
 Atom     2 has atomic number  9 and mass  18.99840
 Atom     3 has atomic number  1 and mass   1.00783
 Atom     4 has atomic number 17 and mass  34.96885
 Molecular mass:    85.94884 amu.
 Principal axes and moments of inertia in atomic units:
                           1         2         3
     Eigenvalues --    92.17404 412.08100 490.67102
           X            0.99989   0.01227   0.00823
           Y           -0.01275   0.99811   0.06009
           Z           -0.00748  -0.06019   0.99816
 This molecule is an asymmetric top.
 Rotational symmetry number  1.
 Rotational temperatures (Kelvin)      0.93968     0.21019     0.17652
 Rotational constants (GHZ):          19.57971     4.37958     3.67811
 Zero-point vibrational energy      35997.6 (Joules/Mol)
                                    8.60362 (Kcal/Mol)
 Warning -- explicit consideration of   2 degrees of freedom as
           vibrations may cause significant error
 Vibrational temperatures:    389.41   772.60  1238.80  1321.53  1445.66
          (Kelvin)           3491.03
 
 Zero-point correction=                           0.013711 (Hartree/Particle)
 Thermal correction to Energy=                    0.017349
 Thermal correction to Enthalpy=                  0.018293
 Thermal correction to Gibbs Free Energy=        -0.013185
 Sum of electronic and zero-point Energies=           -900.398535
 Sum of electronic and thermal Energies=              -900.394897
 Sum of electronic and thermal Enthalpies=            -900.393953
 Sum of electronic and thermal Free Energies=         -900.425431
 
                     E (Thermal)             CV                S
                      KCal/Mol        Cal/Mol-Kelvin    Cal/Mol-Kelvin
 Total                   10.886             10.262             66.252
 Electronic               0.000              0.000              0.000
 Translational            0.889              2.981             39.267
 Rotational               0.889              2.981             24.436
 Vibrational              9.109              4.300              2.549
 Vibration     1          0.674              1.727              1.592
 Vibration     2          0.892              1.168              0.572
                       Q            Log10(Q)             Ln(Q)
 Total Bot       0.116105D+07          6.064852         13.964839
 Total V=0       0.235153D+13         12.371351         28.486088
 Vib (Bot)       0.758581D-06         -6.119998        -14.091816
 Vib (Bot)    1  0.713811D+00         -0.146417         -0.337137
 Vib (Bot)    2  0.295889D+00         -0.528872         -1.217772
 Vib (V=0)       0.153639D+01          0.186501          0.429433
 Vib (V=0)    1  0.137151D+01          0.137198          0.315911
 Vib (V=0)    2  0.108099D+01          0.033822          0.077878
 Electronic      0.100000D+01          0.000000          0.000000
 Translational   0.313194D+08          7.495814         17.259749
 Rotational      0.488693D+05          4.689036         10.796905
 ***** Axes restored to original set *****
 -------------------------------------------------------------------
 Center     Atomic                   Forces (Hartrees/Bohr)
 Number     Number              X              Y              Z
 -------------------------------------------------------------------
      1       15           0.000023140    0.000039202   -0.000076859
      2        9           0.000002885   -0.000002470    0.000065691
      3        1          -0.000017859   -0.000015010    0.000007900
      4       17          -0.000008166   -0.000021722    0.000003268
 -------------------------------------------------------------------
 Cartesian Forces:  Max     0.000076859 RMS     0.000033498
 -----------------------------------------------------------------------------------------------
                       Internal Coordinate Forces (Hartree/Bohr or radian)
  Cent   Atom   N1       Length/X         N2         Alpha/Y        N3         Beta/Z          J
 -----------------------------------------------------------------------------------------------
      1  P 
      2  F        1   0.000066(     1)
      3  H        1  -0.000019(     2)      2  -0.000016(     4)
      4  Cl       1  -0.000021(     3)      2   0.000003(     5)      3  -0.000040(     6)     0
 -----------------------------------------------------------------------------------------------
 Internal  Forces:  Max     0.000065691 RMS     0.000034106

 GradGradGradGradGradGradGradGradGradGradGradGradGradGradGradGradGradGrad
 Berny optimization.
 Search for a local minimum.
 Step number   1 out of a maximum of    2
 All quantities printed in internal units (Hartrees-Bohrs-Radians)
 Second derivative matrix not updated -- analytic derivatives used.
 The second derivative matrix:
                          B1        B2        B3        A1        A2
           B1           0.33717
           B2           0.00501   0.21723
           B3           0.01597   0.00104   0.17915
           A1           0.03599  -0.00016  -0.00507   0.25447
           A2           0.01537   0.00488   0.00978   0.02496   0.26083
           D1           0.00150   0.00638  -0.03011   0.00471  -0.00281
                          D1
           D1           0.21563
 ITU=  0
     Eigenvalues ---    0.15993   0.21200   0.22582   0.24186   0.26700
     Eigenvalues ---    0.35787
 Angle between quadratic step and forces=  18.29 degrees.
 Linear search not attempted -- first point.
 Variable       Old X    -DE/DX   Delta X   Delta X   Delta X     New X
                                 (Linear)    (Quad)   (Total)
    B1        3.05992   0.00007   0.00000   0.00021   0.00021   3.06013
    B2        2.68973  -0.00002   0.00000  -0.00008  -0.00008   2.68965
    B3        3.90396  -0.00002   0.00000  -0.00017  -0.00017   3.90379
    A1        1.67525  -0.00002   0.00000  -0.00009  -0.00009   1.67516
    A2        1.75842   0.00000   0.00000   0.00001   0.00001   1.75843
    D1       -1.67938  -0.00004   0.00000  -0.00021  -0.00021  -1.67959
         Item               Value     Threshold  Converged?
 Maximum Force            0.000066     0.000450     YES
 RMS     Force            0.000034     0.000300     YES
 Maximum Displacement     0.000215     0.001800     YES
 RMS     Displacement     0.000150     0.001200     YES
 Predicted change in Energy=-1.459725D-08
 Optimization completed.
    -- Stationary point found.
                       ----------------------------
                       !   Optimized Parameters   !
                       ! (Angstroms and Degrees)  !
 ----------------------                            ----------------------
 !      Name          Value   Derivative information (Atomic Units)     !
 ------------------------------------------------------------------------
 !       B1          1.6192   -DE/DX =    0.0001                        !
 !       B2          1.4233   -DE/DX =    0.0                           !
 !       B3          2.0659   -DE/DX =    0.0                           !
 !       A1         95.985    -DE/DX =    0.0                           !
 !       A2        100.75     -DE/DX =    0.0                           !
 !       D1        -96.2213   -DE/DX =    0.0                           !
 ------------------------------------------------------------------------
 GradGradGradGradGradGradGradGradGradGradGradGradGradGradGradGradGradGrad

 Unable to Open any file for archive entry.
 1\1\GINC-LAPTOP-P4FAIH0F\Freq\RCCSD-FC\def2SVP\Cl1F1H1P1\RKDQL\26-Jan-
 2024\1\\#N CCSD/def2SVP FREQ Geom=Connectivity\\GS_inverse_freq\\0,1\P
 \F,1,B1\H,1,B2,2,A1\Cl,1,B3,2,A2,3,D1,0\\B1=1.6192389\B2=1.42334418\B3
 =2.0658889\A1=95.9849904\A2=100.7500273\D1=-96.22128867\\Version=ES64L
 -G16RevC.01\State=1-A\HF=-899.9509734\MP2=-900.3826408\MP3=-900.405298
 1\MP4D=-900.4149986\MP4DQ=-900.4089315\MP4SDQ=-900.4127824\CCSD=-900.4
 122459\RMSD=7.247e-09\RMSF=3.350e-05\ZeroPoint=0.0137107\Thermal=0.017
 3487\ETot=-900.3948972\HTot=-900.393953\GTot=-900.4254313\Dipole=0.289
 3073,-0.4081617,-0.4264364\DipoleDeriv=0.7832172,0.0127899,0.1033515,-
 0.0502948,1.4479389,-0.0959477,0.0176946,-0.2858329,1.4316944,-0.27551
 72,-0.0172516,-0.1263942,-0.010859,-0.3375974,-0.0895545,0.0893311,0.2
 523398,-1.1484847,-0.3285296,0.049168,0.0297629,-0.0806816,-0.1108171,
 0.0166257,-0.0771618,-0.0065242,-0.0707424,-0.1791199,-0.0446689,-0.00
 67388,0.1418254,-0.9994876,0.1688688,-0.0298712,0.0400931,-0.2124197\P
 G=C01 [X(Cl1F1H1P1)]\NImag=0\\0.27753754,0.00757184,0.21709716,0.00545
 018,0.00770868,0.36088050,-0.03432752,-0.00496696,-0.01886641,0.027523
 51,-0.00172934,-0.03157693,-0.02030772,0.00018182,0.02794151,0.0087660
 4,-0.01054664,-0.31648916,-0.01112629,-0.00492816,0.33716535,-0.220538
 01,-0.00247595,0.01643262,0.00379255,-0.00101125,0.00359131,0.21525984
 ,-0.02874033,-0.02511528,-0.00202908,0.00435778,0.00364309,0.00056177,
 0.00229776,0.03013790,-0.01056922,-0.00428290,-0.02543733,0.03025047,0
 .00306104,-0.01383102,-0.01881691,-0.00089856,0.03714641,-0.02267094,-
 0.00012838,-0.00301672,0.00301052,0.00255747,-0.00123171,0.00148626,0.
 02208465,-0.00086248,0.01817338,0.02289740,-0.16040706,0.01462598,0.00
 042886,-0.00000743,0.01491100,0.00118877,-0.00866627,0.00212118,-0.024
 51415,0.16908316,-0.00364423,0.00712102,-0.01895098,-0.00025801,0.0221
 7531,-0.00684632,-0.00120811,0.00236397,0.00212103,0.00510945,-0.03165
 690,0.02367533\\-0.00002314,-0.00003920,0.00007686,-0.00000289,0.00000
 247,-0.00006569,0.00001786,0.00001501,-0.00000790,0.00000817,0.0000217
 2,-0.00000327\\\@
 The archive entry for this job was punched.


 THE MOLECULE ALSO HAS A BODY.  WHEN THIS BODY IS HIT, THE MOLECULE
 FEELS HURT ALL OVER -- A. KITAIGORODSKI
 Job cpu time:       0 days  0 hours  5 minutes  6.7 seconds.
 Elapsed time:       0 days  0 hours  5 minutes  7.7 seconds.
 File lengths (MBytes):  RWF=    140 Int=      0 D2E=      0 Chk=     38 Scr=      1
 Normal termination of Gaussian 16 at Fri Jan 26 20:47:44 2024.