 Entering Gaussian System, Link 0=/home/rkdql/gaussian_c01/g16/g16
 Initial command:
 /home/rkdql/gaussian_c01/g16/l1.exe "/tmp/webmo-1487/53/Gau-4859.inp" -scrdir="/tmp/webmo-1487/53/"
 Entering Link 1 = /home/rkdql/gaussian_c01/g16/l1.exe PID=      4861.
  
 Copyright (c) 1988-2019, Gaussian, Inc.  All Rights Reserved.
  
 This is part of the Gaussian(R) 16 program.  It is based on
 the Gaussian(R) 09 system (copyright 2009, Gaussian, Inc.),
 the Gaussian(R) 03 system (copyright 2003, Gaussian, Inc.),
 the Gaussian(R) 98 system (copyright 1998, Gaussian, Inc.),
 the Gaussian(R) 94 system (copyright 1995, Gaussian, Inc.),
 the Gaussian 92(TM) system (copyright 1992, Gaussian, Inc.),
 the Gaussian 90(TM) system (copyright 1990, Gaussian, Inc.),
 the Gaussian 88(TM) system (copyright 1988, Gaussian, Inc.),
 the Gaussian 86(TM) system (copyright 1986, Carnegie Mellon
 University), and the Gaussian 82(TM) system (copyright 1983,
 Carnegie Mellon University). Gaussian is a federally registered
 trademark of Gaussian, Inc.
  
 This software contains proprietary and confidential information,
 including trade secrets, belonging to Gaussian, Inc.
  
 This software is provided under written license and may be
 used, copied, transmitted, or stored only in accord with that
 written license.
  
 The following legend is applicable only to US Government
 contracts under FAR:
  
                    RESTRICTED RIGHTS LEGEND
  
 Use, reproduction and disclosure by the US Government is
 subject to restrictions as set forth in subparagraphs (a)
 and (c) of the Commercial Computer Software - Restricted
 Rights clause in FAR 52.227-19.
  
 Gaussian, Inc.
 340 Quinnipiac St., Bldg. 40, Wallingford CT 06492
  
  
 ---------------------------------------------------------------
 Warning -- This program may not be used in any manner that
 competes with the business of Gaussian, Inc. or will provide
 assistance to any competitor of Gaussian, Inc.  The licensee
 of this program is prohibited from giving any competitor of
 Gaussian, Inc. access to this program.  By using this program,
 the user acknowledges that Gaussian, Inc. is engaged in the
 business of creating and licensing software in the field of
 computational chemistry and represents and warrants to the
 licensee that it is not a competitor of Gaussian, Inc. and that
 it will not use this program in any manner prohibited above.
 ---------------------------------------------------------------
  

 Cite this work as:
 Gaussian 16, Revision C.01,
 M. J. Frisch, G. W. Trucks, H. B. Schlegel, G. E. Scuseria, 
 M. A. Robb, J. R. Cheeseman, G. Scalmani, V. Barone, 
 G. A. Petersson, H. Nakatsuji, X. Li, M. Caricato, A. V. Marenich, 
 J. Bloino, B. G. Janesko, R. Gomperts, B. Mennucci, H. P. Hratchian, 
 J. V. Ortiz, A. F. Izmaylov, J. L. Sonnenberg, D. Williams-Young, 
 F. Ding, F. Lipparini, F. Egidi, J. Goings, B. Peng, A. Petrone, 
 T. Henderson, D. Ranasinghe, V. G. Zakrzewski, J. Gao, N. Rega, 
 G. Zheng, W. Liang, M. Hada, M. Ehara, K. Toyota, R. Fukuda, 
 J. Hasegawa, M. Ishida, T. Nakajima, Y. Honda, O. Kitao, H. Nakai, 
 T. Vreven, K. Throssell, J. A. Montgomery, Jr., J. E. Peralta, 
 F. Ogliaro, M. J. Bearpark, J. J. Heyd, E. N. Brothers, K. N. Kudin, 
 V. N. Staroverov, T. A. Keith, R. Kobayashi, J. Normand, 
 K. Raghavachari, A. P. Rendell, J. C. Burant, S. S. Iyengar, 
 J. Tomasi, M. Cossi, J. M. Millam, M. Klene, C. Adamo, R. Cammi, 
 J. W. Ochterski, R. L. Martin, K. Morokuma, O. Farkas, 
 J. B. Foresman, and D. J. Fox, Gaussian, Inc., Wallingford CT, 2019.
 
 ******************************************
 Gaussian 16:  ES64L-G16RevC.01  3-Jul-2019
                26-Jan-2024 
 ******************************************
 ------------------------------------
 #N CCSD/def2SVP SP Geom=Connectivity
 ------------------------------------
 1/38=1,57=2,172=1/1;
 2/12=2,17=6,18=5,40=1/2;
 3/5=43,7=101,11=9,25=1,30=1/1,2,3;
 4//1;
 5/5=2,38=5/2;
 8/6=4,9=120000,10=1/1,4;
 9/5=7/13;
 6/7=2,8=2,9=2,10=2/1;
 99/5=1,9=1/99;
 -------------
 GS_inverse_SP
 -------------
 Symbolic Z-matrix:
 Charge =  0 Multiplicity = 1
 P
 F                    1    B1
 H                    1    B2       2    A1
 Cl                   1    B3       2    A2       3    D1       0
       Variables:
  B1                    1.61924                  
  B2                    1.42334                  
  B3                    2.06589                  
  A1                   95.98499                  
  A2                  100.75003                  
  D1                  -96.22129                  
 
                          Input orientation:                          
 ---------------------------------------------------------------------
 Center     Atomic      Atomic             Coordinates (Angstroms)
 Number     Number       Type             X           Y           Z
 ---------------------------------------------------------------------
      1         15           0        0.000000    0.000000    0.000000
      2          9           0        0.000000    0.000000    1.619239
      3          1           0        1.415586    0.000000   -0.148409
      4         17           0       -0.219949    2.017680   -0.385339
 ---------------------------------------------------------------------
                    Distance matrix (angstroms):
                    1          2          3          4
     1  P    0.000000
     2  F    1.619239   0.000000
     3  H    1.423344   2.264611   0.000000
     4  Cl   2.065889   2.852673   2.608092   0.000000
 Stoichiometry    ClFHP
 Framework group  C1[X(ClFHP)]
 Deg. of freedom     6
 Full point group                 C1      NOp   1
 Largest Abelian subgroup         C1      NOp   1
 Largest concise Abelian subgroup C1      NOp   1
                         Standard orientation:                         
 ---------------------------------------------------------------------
 Center     Atomic      Atomic             Coordinates (Angstroms)
 Number     Number       Type             X           Y           Z
 ---------------------------------------------------------------------
      1         15           0        0.581766    0.595210   -0.111569
      2          9           0        1.466702   -0.753652    0.027694
      3          1           0        0.652665    0.961690    1.261958
      4         17           0       -1.328204   -0.182763    0.009549
 ---------------------------------------------------------------------
 Rotational constants (GHZ):          19.5797118           4.3795788           3.6781084
 Standard basis: def2SVP (5D, 7F)
 There are    58 symmetry adapted cartesian basis functions of A   symmetry.
 There are    55 symmetry adapted basis functions of A   symmetry.
    55 basis functions,   106 primitive gaussians,    58 cartesian basis functions
    21 alpha electrons       21 beta electrons
       nuclear repulsion energy       148.9479806139 Hartrees.
 NAtoms=    4 NActive=    4 NUniq=    4 SFac= 1.00D+00 NAtFMM=   60 NAOKFM=F Big=F
 Integral buffers will be    131072 words long.
 Raffenetti 1 integral format.
 Two-electron integral symmetry is turned on.
 One-electron integrals computed using PRISM.
   1 Symmetry operations used in ECPInt.
 ECPInt:  NShTT=     325 NPrTT=    1493 LenC2=     322 LenP2D=    1210.
 LDataN:  DoStor=T MaxTD1= 4 Len=   56
 NBasis=    55 RedAO= T EigKep=  1.68D-02  NBF=    55
 NBsUse=    55 1.00D-06 EigRej= -1.00D+00 NBFU=    55
 ExpMin= 1.05D-01 ExpMax= 1.04D+04 ExpMxC= 1.57D+03 IAcc=3 IRadAn=         5 AccDes= 0.00D+00
 Harris functional with IExCor=  205 and IRadAn=       5 diagonalized for initial guess.
 HarFok:  IExCor=  205 AccDes= 0.00D+00 IRadAn=         5 IDoV= 1 UseB2=F ITyADJ=14
 ICtDFT=  3500011 ScaDFX=  1.000000  1.000000  1.000000  1.000000
 FoFCou: FMM=F IPFlag=           0 FMFlag=      100000 FMFlg1=           0
         NFxFlg=           0 DoJE=T BraDBF=F KetDBF=T FulRan=T
         wScrn=  0.000000 ICntrl=       500 IOpCl=  0 I1Cent=   200000004 NGrid=           0
         NMat0=    1 NMatS0=      1 NMatT0=    0 NMatD0=    1 NMtDS0=    0 NMtDT0=    0
 Petite list used in FoFCou.
 Keep R1 ints in memory in canonical form, NReq=2030306.
 Requested convergence on RMS density matrix=1.00D-08 within 128 cycles.
 Requested convergence on MAX density matrix=1.00D-06.
 Requested convergence on             energy=1.00D-06.
 No special actions if energy rises.
 SCF Done:  E(RHF) =  -899.950973435     A.U. after   12 cycles
            NFock= 12  Conv=0.72D-08     -V/T= 2.0003
 ExpMin= 1.05D-01 ExpMax= 1.04D+04 ExpMxC= 1.57D+03 IAcc=3 IRadAn=         5 AccDes= 0.00D+00
 HarFok:  IExCor=  205 AccDes= 0.00D+00 IRadAn=         5 IDoV=-2 UseB2=F ITyADJ=14
 ICtDFT= 12500011 ScaDFX=  1.000000  1.000000  1.000000  1.000000
 Range of M.O.s used for correlation:    12    55
 NBasis=    55 NAE=    21 NBE=    21 NFC=    11 NFV=     0
 NROrb=     44 NOA=    10 NOB=    10 NVA=    34 NVB=    34
 Semi-Direct transformation.
 ModeAB=           2 MOrb=            10 LenV=     104642533
 LASXX=       347920 LTotXX=      347920 LenRXX=      347920
 LTotAB=      372350 MaxLAS=      752840 LenRXY=      752840
 NonZer=      775720 LenScr=     1744896 LnRSAI=           0
 LnScr1=           0 LExtra=           0 Total=      2845656
 MaxDsk=          -1 SrtSym=           F ITran=            4
 JobTyp=0 Pass  1:  I=   1 to  10.
 (rs|ai) integrals will be sorted in core.
 SymMOI:  orbitals are not symmetric.
 Spin components of T(2) and E(2):
     alpha-alpha T2 =       0.1670034734D-01 E2=     -0.5555538456D-01
     alpha-beta  T2 =       0.1001467274D+00 E2=     -0.3205565948D+00
     beta-beta   T2 =       0.1670034734D-01 E2=     -0.5555538456D-01
 ANorm=    0.1064681841D+01
 E2 =    -0.4316673639D+00 EUMP2 =    -0.90038264079907D+03
 Keep R2 and R3 ints in memory in canonical form, NReq=3220021.
 CIDS: In Core Option IDoMem=           1.
 Iterations=  50 Convergence= 0.100D-06
 Produce multiple copies of IABC intergrals
 Iteration Nr.   1
 **********************
 DD1Dir will call FoFMem   1 times, MxPair=       110
 NAB=    55 NAA=     0 NBB=     0.
 MP4(R+Q)=  0.60671221D-02
 E3=       -0.22657300D-01        EUMP3=      -0.90040529810D+03
 E4(DQ)=   -0.36333779D-02        UMP4(DQ)=   -0.90040893148D+03
 E4(SDQ)=  -0.74842532D-02        UMP4(SDQ)=  -0.90041278235D+03
 DE(Corr)= -0.44797298     E(Corr)=     -900.39894642    
 NORM(A)=   0.10744300D+01
 Iteration Nr.   2
 **********************
 DD1Dir will call FoFMem   1 times, MxPair=       110
 NAB=    55 NAA=     0 NBB=     0.
 DE(Corr)= -0.45901260     E(CORR)=     -900.40998603     Delta=-1.10D-02
 NORM(A)=   0.10800999D+01
 Iteration Nr.   3
 **********************
 DD1Dir will call FoFMem   1 times, MxPair=       110
 NAB=    55 NAA=     0 NBB=     0.
 DE(Corr)= -0.46005276     E(CORR)=     -900.41102620     Delta=-1.04D-03
 NORM(A)=   0.10816961D+01
 Iteration Nr.   4
 **********************
 DD1Dir will call FoFMem   1 times, MxPair=       110
 NAB=    55 NAA=     0 NBB=     0.
 DE(Corr)= -0.46117594     E(CORR)=     -900.41214938     Delta=-1.12D-03
 NORM(A)=   0.10820761D+01
 Iteration Nr.   5
 **********************
 DD1Dir will call FoFMem   1 times, MxPair=       110
 NAB=    55 NAA=     0 NBB=     0.
 DE(Corr)= -0.46125981     E(CORR)=     -900.41223325     Delta=-8.39D-05
 NORM(A)=   0.10821909D+01
 Iteration Nr.   6
 **********************
 DD1Dir will call FoFMem   1 times, MxPair=       110
 NAB=    55 NAA=     0 NBB=     0.
 DE(Corr)= -0.46127172     E(CORR)=     -900.41224515     Delta=-1.19D-05
 NORM(A)=   0.10822103D+01
 Iteration Nr.   7
 **********************
 DD1Dir will call FoFMem   1 times, MxPair=       110
 NAB=    55 NAA=     0 NBB=     0.
 DE(Corr)= -0.46127279     E(CORR)=     -900.41224622     Delta=-1.07D-06
 NORM(A)=   0.10822127D+01
 Iteration Nr.   8
 **********************
 DD1Dir will call FoFMem   1 times, MxPair=       110
 NAB=    55 NAA=     0 NBB=     0.
 DE(Corr)= -0.46127080     E(CORR)=     -900.41224423     Delta= 1.99D-06
 NORM(A)=   0.10822140D+01
 Iteration Nr.   9
 **********************
 DD1Dir will call FoFMem   1 times, MxPair=       110
 NAB=    55 NAA=     0 NBB=     0.
 DE(Corr)= -0.46127205     E(CORR)=     -900.41224548     Delta=-1.25D-06
 NORM(A)=   0.10822145D+01
 Iteration Nr.  10
 **********************
 DD1Dir will call FoFMem   1 times, MxPair=       110
 NAB=    55 NAA=     0 NBB=     0.
 DE(Corr)= -0.46127203     E(CORR)=     -900.41224547     Delta= 1.27D-08
 NORM(A)=   0.10822150D+01
 Wavefunction amplitudes converged. E(Corr)=     -900.41224547    
 Largest amplitude= 5.29D-02
 Discarding MO integrals.

 **********************************************************************

            Population analysis using the SCF Density.

 **********************************************************************

 Orbital symmetries:
       Occupied  (A) (A) (A) (A) (A) (A) (A) (A) (A) (A) (A) (A)
                 (A) (A) (A) (A) (A) (A) (A) (A) (A)
       Virtual   (A) (A) (A) (A) (A) (A) (A) (A) (A) (A) (A) (A)
                 (A) (A) (A) (A) (A) (A) (A) (A) (A) (A) (A) (A)
                 (A) (A) (A) (A) (A) (A) (A) (A) (A) (A)
 The electronic state is 1-A.
 Alpha  occ. eigenvalues -- -104.80336 -80.04315 -26.30401 -10.56771  -8.04241
 Alpha  occ. eigenvalues --   -8.03923  -8.03893  -7.60303  -5.50144  -5.50013
 Alpha  occ. eigenvalues --   -5.49778  -1.58913  -1.12096  -0.85927  -0.70802
 Alpha  occ. eigenvalues --   -0.69270  -0.66929  -0.55321  -0.49573  -0.47877
 Alpha  occ. eigenvalues --   -0.40282
 Alpha virt. eigenvalues --    0.11885   0.13001   0.19368   0.43043   0.49918
 Alpha virt. eigenvalues --    0.63187   0.66441   0.68569   0.71384   0.74076
 Alpha virt. eigenvalues --    0.79539   0.81918   0.92054   1.01940   1.02802
 Alpha virt. eigenvalues --    1.05926   1.06648   1.12591   1.19565   1.22443
 Alpha virt. eigenvalues --    1.25828   1.51018   1.54657   1.56117   1.60167
 Alpha virt. eigenvalues --    1.78635   1.84129   2.11162   2.38701   3.43316
 Alpha virt. eigenvalues --    3.43586   3.50095   3.51971   3.88048
          Condensed to atoms (all electrons):
               1          2          3          4
     1  P   13.478880   0.172448   0.324194   0.208433
     2  F    0.172448   9.326973  -0.013066  -0.013750
     3  H    0.324194  -0.013066   0.741577  -0.024805
     4  Cl   0.208433  -0.013750  -0.024805  17.145662
 Mulliken charges:
               1
     1  P    0.816045
     2  F   -0.472606
     3  H   -0.027900
     4  Cl  -0.315540
 Sum of Mulliken charges =  -0.00000
 Mulliken charges with hydrogens summed into heavy atoms:
               1
     1  P    0.788145
     2  F   -0.472606
     4  Cl  -0.315540
 Electronic spatial extent (au):  <R**2>=            314.6975
 Charge=             -0.0000 electrons
 Dipole moment (field-independent basis, Debye):
    X=              0.4245    Y=              1.8547    Z=              0.5404  Tot=              1.9779
 Quadrupole moment (field-independent basis, Debye-Ang):
   XX=            -32.6904   YY=            -30.7271   ZZ=            -30.5525
   XY=              1.8747   XZ=              0.4970   YZ=              1.3704
 Traceless Quadrupole moment (field-independent basis, Debye-Ang):
   XX=             -1.3671   YY=              0.5962   ZZ=              0.7708
   XY=              1.8747   XZ=              0.4970   YZ=              1.3704
 Octapole moment (field-independent basis, Debye-Ang**2):
  XXX=              3.7503  YYY=             -5.1482  ZZZ=              1.3970  XYY=              0.2765
  XXY=              0.4163  XXZ=              0.8257  XZZ=              2.2793  YZZ=             -2.8820
  YYZ=              1.8153  XYZ=              1.1195
 Hexadecapole moment (field-independent basis, Debye-Ang**3):
 XXXX=           -250.0275 YYYY=            -81.2572 ZZZZ=            -42.3808 XXXY=              0.3513
 XXXZ=              0.6628 YYYX=             -7.5325 YYYZ=              2.6729 ZZZX=              1.3182
 ZZZY=              2.1234 XXYY=            -57.1664 XXZZ=            -50.0623 YYZZ=            -21.6214
 XXYZ=              1.0947 YYXZ=              1.4420 ZZXY=             -3.3010
 N-N= 1.489479806139D+02 E-N=-2.442500983901D+03  KE= 8.997252845346D+02
 Unable to Open any file for archive entry.
 1\1\GINC-LAPTOP-P4FAIH0F\SP\RCCSD-FC\def2SVP\Cl1F1H1P1\RKDQL\26-Jan-20
 24\0\\#N CCSD/def2SVP SP Geom=Connectivity\\GS_inverse_SP\\0,1\P\F,1,1
 .619238896\H,1,1.423344183,2,95.9849904\Cl,1,2.065888903,2,100.7500273
 ,3,-96.22128867,0\\Version=ES64L-G16RevC.01\State=1-A\HF=-899.9509734\
 MP2=-900.3826408\MP3=-900.4052981\MP4D=-900.4149986\MP4DQ=-900.4089315
 \MP4SDQ=-900.4127824\CCSD=-900.4122455\RMSD=7.247e-09\PG=C01 [X(Cl1F1H
 1P1)]\\@
 The archive entry for this job was punched.


 THE MORE ACCURATE THE CALCULATIONS BECOME, THE MORE THE CONCEPTS
 TEND TO VANISH INTO THIN AIR.
     -- R.S. MULLIKEN, J.C.P. 43,S2(1965)
 Job cpu time:       0 days  0 hours  0 minutes  3.9 seconds.
 Elapsed time:       0 days  0 hours  0 minutes  4.1 seconds.
 File lengths (MBytes):  RWF=     41 Int=      0 D2E=      0 Chk=      1 Scr=      1
 Normal termination of Gaussian 16 at Fri Jan 26 20:42:13 2024.