 Entering Gaussian System, Link 0=/home/rkdql/gaussian_c01/g16/g16
 Initial command:
 /home/rkdql/gaussian_c01/g16/l1.exe "/tmp/webmo-1487/50/Gau-4448.inp" -scrdir="/tmp/webmo-1487/50/"
 Entering Link 1 = /home/rkdql/gaussian_c01/g16/l1.exe PID=      4450.
  
 Copyright (c) 1988-2019, Gaussian, Inc.  All Rights Reserved.
  
 This is part of the Gaussian(R) 16 program.  It is based on
 the Gaussian(R) 09 system (copyright 2009, Gaussian, Inc.),
 the Gaussian(R) 03 system (copyright 2003, Gaussian, Inc.),
 the Gaussian(R) 98 system (copyright 1998, Gaussian, Inc.),
 the Gaussian(R) 94 system (copyright 1995, Gaussian, Inc.),
 the Gaussian 92(TM) system (copyright 1992, Gaussian, Inc.),
 the Gaussian 90(TM) system (copyright 1990, Gaussian, Inc.),
 the Gaussian 88(TM) system (copyright 1988, Gaussian, Inc.),
 the Gaussian 86(TM) system (copyright 1986, Carnegie Mellon
 University), and the Gaussian 82(TM) system (copyright 1983,
 Carnegie Mellon University). Gaussian is a federally registered
 trademark of Gaussian, Inc.
  
 This software contains proprietary and confidential information,
 including trade secrets, belonging to Gaussian, Inc.
  
 This software is provided under written license and may be
 used, copied, transmitted, or stored only in accord with that
 written license.
  
 The following legend is applicable only to US Government
 contracts under FAR:
  
                    RESTRICTED RIGHTS LEGEND
  
 Use, reproduction and disclosure by the US Government is
 subject to restrictions as set forth in subparagraphs (a)
 and (c) of the Commercial Computer Software - Restricted
 Rights clause in FAR 52.227-19.
  
 Gaussian, Inc.
 340 Quinnipiac St., Bldg. 40, Wallingford CT 06492
  
  
 ---------------------------------------------------------------
 Warning -- This program may not be used in any manner that
 competes with the business of Gaussian, Inc. or will provide
 assistance to any competitor of Gaussian, Inc.  The licensee
 of this program is prohibited from giving any competitor of
 Gaussian, Inc. access to this program.  By using this program,
 the user acknowledges that Gaussian, Inc. is engaged in the
 business of creating and licensing software in the field of
 computational chemistry and represents and warrants to the
 licensee that it is not a competitor of Gaussian, Inc. and that
 it will not use this program in any manner prohibited above.
 ---------------------------------------------------------------
  

 Cite this work as:
 Gaussian 16, Revision C.01,
 M. J. Frisch, G. W. Trucks, H. B. Schlegel, G. E. Scuseria, 
 M. A. Robb, J. R. Cheeseman, G. Scalmani, V. Barone, 
 G. A. Petersson, H. Nakatsuji, X. Li, M. Caricato, A. V. Marenich, 
 J. Bloino, B. G. Janesko, R. Gomperts, B. Mennucci, H. P. Hratchian, 
 J. V. Ortiz, A. F. Izmaylov, J. L. Sonnenberg, D. Williams-Young, 
 F. Ding, F. Lipparini, F. Egidi, J. Goings, B. Peng, A. Petrone, 
 T. Henderson, D. Ranasinghe, V. G. Zakrzewski, J. Gao, N. Rega, 
 G. Zheng, W. Liang, M. Hada, M. Ehara, K. Toyota, R. Fukuda, 
 J. Hasegawa, M. Ishida, T. Nakajima, Y. Honda, O. Kitao, H. Nakai, 
 T. Vreven, K. Throssell, J. A. Montgomery, Jr., J. E. Peralta, 
 F. Ogliaro, M. J. Bearpark, J. J. Heyd, E. N. Brothers, K. N. Kudin, 
 V. N. Staroverov, T. A. Keith, R. Kobayashi, J. Normand, 
 K. Raghavachari, A. P. Rendell, J. C. Burant, S. S. Iyengar, 
 J. Tomasi, M. Cossi, J. M. Millam, M. Klene, C. Adamo, R. Cammi, 
 J. W. Ochterski, R. L. Martin, K. Morokuma, O. Farkas, 
 J. B. Foresman, and D. J. Fox, Gaussian, Inc., Wallingford CT, 2019.
 
 ******************************************
 Gaussian 16:  ES64L-G16RevC.01  3-Jul-2019
                26-Jan-2024 
 ******************************************
 ------------------------------------
 #N CCSD/def2SVP SP Geom=Connectivity
 ------------------------------------
 1/38=1,57=2,172=1/1;
 2/12=2,17=6,18=5,40=1/2;
 3/5=43,7=101,11=9,25=1,30=1/1,2,3;
 4//1;
 5/5=2,38=5/2;
 8/6=4,9=120000,10=1/1,4;
 9/5=7/13;
 6/7=2,8=2,9=2,10=2/1;
 99/5=1,9=1/99;
 -------
 GS_freq
 -------
 Symbolic Z-matrix:
 Charge =  0 Multiplicity = 1
 P
 F                    1    B1
 H                    1    B2       2    A1
 Cl                   1    B3       2    A2       3    D1       0
       Variables:
  B1                    1.61938                  
  B2                    1.42359                  
  B3                    2.06567                  
  A1                   96.03876                  
  A2                  100.76498                  
  D1                   96.27636                  
 
                          Input orientation:                          
 ---------------------------------------------------------------------
 Center     Atomic      Atomic             Coordinates (Angstroms)
 Number     Number       Type             X           Y           Z
 ---------------------------------------------------------------------
      1         15           0        0.000000    0.000000    0.000000
      2          9           0        0.000000    0.000000    1.619380
      3          1           0        1.415695    0.000000   -0.149764
      4         17           0       -0.221854   -2.017156   -0.385828
 ---------------------------------------------------------------------
                    Distance matrix (angstroms):
                    1          2          3          4
     1  P    0.000000
     2  F    1.619380   0.000000
     3  H    1.423595   2.265848   0.000000
     4  Cl   2.065672   2.852893   2.608871   0.000000
 Stoichiometry    ClFHP
 Framework group  C1[X(ClFHP)]
 Deg. of freedom     6
 Full point group                 C1      NOp   1
 Largest Abelian subgroup         C1      NOp   1
 Largest concise Abelian subgroup C1      NOp   1
                         Standard orientation:                         
 ---------------------------------------------------------------------
 Center     Atomic      Atomic             Coordinates (Angstroms)
 Number     Number       Type             X           Y           Z
 ---------------------------------------------------------------------
      1         15           0       -0.581550    0.595115   -0.111695
      2          9           0       -1.466993   -0.753555    0.027851
      3          1           0       -0.652786    0.963791    1.261486
      4         17           0        1.328175   -0.182854    0.009604
 ---------------------------------------------------------------------
 Rotational constants (GHZ):          19.5806598           4.3793685           3.6779724
 Standard basis: def2SVP (5D, 7F)
 There are    58 symmetry adapted cartesian basis functions of A   symmetry.
 There are    55 symmetry adapted basis functions of A   symmetry.
    55 basis functions,   106 primitive gaussians,    58 cartesian basis functions
    21 alpha electrons       21 beta electrons
       nuclear repulsion energy       148.9456503276 Hartrees.
 NAtoms=    4 NActive=    4 NUniq=    4 SFac= 1.00D+00 NAtFMM=   60 NAOKFM=F Big=F
 Integral buffers will be    131072 words long.
 Raffenetti 1 integral format.
 Two-electron integral symmetry is turned on.
 One-electron integrals computed using PRISM.
   1 Symmetry operations used in ECPInt.
 ECPInt:  NShTT=     325 NPrTT=    1493 LenC2=     322 LenP2D=    1210.
 LDataN:  DoStor=T MaxTD1= 4 Len=   56
 NBasis=    55 RedAO= T EigKep=  1.68D-02  NBF=    55
 NBsUse=    55 1.00D-06 EigRej= -1.00D+00 NBFU=    55
 ExpMin= 1.05D-01 ExpMax= 1.04D+04 ExpMxC= 1.57D+03 IAcc=3 IRadAn=         5 AccDes= 0.00D+00
 Harris functional with IExCor=  205 and IRadAn=       5 diagonalized for initial guess.
 HarFok:  IExCor=  205 AccDes= 0.00D+00 IRadAn=         5 IDoV= 1 UseB2=F ITyADJ=14
 ICtDFT=  3500011 ScaDFX=  1.000000  1.000000  1.000000  1.000000
 FoFCou: FMM=F IPFlag=           0 FMFlag=      100000 FMFlg1=           0
         NFxFlg=           0 DoJE=T BraDBF=F KetDBF=T FulRan=T
         wScrn=  0.000000 ICntrl=       500 IOpCl=  0 I1Cent=   200000004 NGrid=           0
         NMat0=    1 NMatS0=      1 NMatT0=    0 NMatD0=    1 NMtDS0=    0 NMtDT0=    0
 Petite list used in FoFCou.
 Keep R1 ints in memory in canonical form, NReq=2030306.
 Requested convergence on RMS density matrix=1.00D-08 within 128 cycles.
 Requested convergence on MAX density matrix=1.00D-06.
 Requested convergence on             energy=1.00D-06.
 No special actions if energy rises.
 SCF Done:  E(RHF) =  -899.950967686     A.U. after   12 cycles
            NFock= 12  Conv=0.72D-08     -V/T= 2.0003
 ExpMin= 1.05D-01 ExpMax= 1.04D+04 ExpMxC= 1.57D+03 IAcc=3 IRadAn=         5 AccDes= 0.00D+00
 HarFok:  IExCor=  205 AccDes= 0.00D+00 IRadAn=         5 IDoV=-2 UseB2=F ITyADJ=14
 ICtDFT= 12500011 ScaDFX=  1.000000  1.000000  1.000000  1.000000
 Range of M.O.s used for correlation:    12    55
 NBasis=    55 NAE=    21 NBE=    21 NFC=    11 NFV=     0
 NROrb=     44 NOA=    10 NOB=    10 NVA=    34 NVB=    34
 Semi-Direct transformation.
 ModeAB=           2 MOrb=            10 LenV=     104642533
 LASXX=       347920 LTotXX=      347920 LenRXX=      347920
 LTotAB=      372350 MaxLAS=      752840 LenRXY=      752840
 NonZer=      775720 LenScr=     1744896 LnRSAI=           0
 LnScr1=           0 LExtra=           0 Total=      2845656
 MaxDsk=          -1 SrtSym=           F ITran=            4
 JobTyp=0 Pass  1:  I=   1 to  10.
 (rs|ai) integrals will be sorted in core.
 SymMOI:  orbitals are not symmetric.
 Spin components of T(2) and E(2):
     alpha-alpha T2 =       0.1670147491D-01 E2=     -0.5555676070D-01
     alpha-beta  T2 =       0.1001508458D+00 E2=     -0.3205612908D+00
     beta-beta   T2 =       0.1670147491D-01 E2=     -0.5555676070D-01
 ANorm=    0.1064684834D+01
 E2 =    -0.4316748122D+00 EUMP2 =    -0.90038264249841D+03
 Keep R2 and R3 ints in memory in canonical form, NReq=3220021.
 CIDS: In Core Option IDoMem=           1.
 Iterations=  50 Convergence= 0.100D-06
 Produce multiple copies of IABC intergrals
 Iteration Nr.   1
 **********************
 DD1Dir will call FoFMem   1 times, MxPair=       110
 NAB=    55 NAA=     0 NBB=     0.
 MP4(R+Q)=  0.60671950D-02
 E3=       -0.22654268D-01        EUMP3=      -0.90040529677D+03
 E4(DQ)=   -0.36339752D-02        UMP4(DQ)=   -0.90040893074D+03
 E4(SDQ)=  -0.74858661D-02        UMP4(SDQ)=  -0.90041278263D+03
 DE(Corr)= -0.44797721     E(Corr)=     -900.39894490    
 NORM(A)=   0.10744323D+01
 Iteration Nr.   2
 **********************
 DD1Dir will call FoFMem   1 times, MxPair=       110
 NAB=    55 NAA=     0 NBB=     0.
 DE(Corr)= -0.45901827     E(CORR)=     -900.40998595     Delta=-1.10D-02
 NORM(A)=   0.10801025D+01
 Iteration Nr.   3
 **********************
 DD1Dir will call FoFMem   1 times, MxPair=       110
 NAB=    55 NAA=     0 NBB=     0.
 DE(Corr)= -0.46005798     E(CORR)=     -900.41102566     Delta=-1.04D-03
 NORM(A)=   0.10816989D+01
 Iteration Nr.   4
 **********************
 DD1Dir will call FoFMem   1 times, MxPair=       110
 NAB=    55 NAA=     0 NBB=     0.
 DE(Corr)= -0.46118145     E(CORR)=     -900.41214913     Delta=-1.12D-03
 NORM(A)=   0.10820790D+01
 Iteration Nr.   5
 **********************
 DD1Dir will call FoFMem   1 times, MxPair=       110
 NAB=    55 NAA=     0 NBB=     0.
 DE(Corr)= -0.46126533     E(CORR)=     -900.41223301     Delta=-8.39D-05
 NORM(A)=   0.10821937D+01
 Iteration Nr.   6
 **********************
 DD1Dir will call FoFMem   1 times, MxPair=       110
 NAB=    55 NAA=     0 NBB=     0.
 DE(Corr)= -0.46127723     E(CORR)=     -900.41224492     Delta=-1.19D-05
 NORM(A)=   0.10822132D+01
 Iteration Nr.   7
 **********************
 DD1Dir will call FoFMem   1 times, MxPair=       110
 NAB=    55 NAA=     0 NBB=     0.
 DE(Corr)= -0.46127831     E(CORR)=     -900.41224599     Delta=-1.07D-06
 NORM(A)=   0.10822156D+01
 Iteration Nr.   8
 **********************
 DD1Dir will call FoFMem   1 times, MxPair=       110
 NAB=    55 NAA=     0 NBB=     0.
 DE(Corr)= -0.46127632     E(CORR)=     -900.41224400     Delta= 1.99D-06
 NORM(A)=   0.10822168D+01
 Iteration Nr.   9
 **********************
 DD1Dir will call FoFMem   1 times, MxPair=       110
 NAB=    55 NAA=     0 NBB=     0.
 DE(Corr)= -0.46127757     E(CORR)=     -900.41224525     Delta=-1.25D-06
 NORM(A)=   0.10822174D+01
 Iteration Nr.  10
 **********************
 DD1Dir will call FoFMem   1 times, MxPair=       110
 NAB=    55 NAA=     0 NBB=     0.
 DE(Corr)= -0.46127755     E(CORR)=     -900.41224524     Delta= 1.25D-08
 NORM(A)=   0.10822178D+01
 Wavefunction amplitudes converged. E(Corr)=     -900.41224524    
 Largest amplitude= 5.29D-02
 Discarding MO integrals.

 **********************************************************************

            Population analysis using the SCF Density.

 **********************************************************************

 Orbital symmetries:
       Occupied  (A) (A) (A) (A) (A) (A) (A) (A) (A) (A) (A) (A)
                 (A) (A) (A) (A) (A) (A) (A) (A) (A)
       Virtual   (A) (A) (A) (A) (A) (A) (A) (A) (A) (A) (A) (A)
                 (A) (A) (A) (A) (A) (A) (A) (A) (A) (A) (A) (A)
                 (A) (A) (A) (A) (A) (A) (A) (A) (A) (A)
 The electronic state is 1-A.
 Alpha  occ. eigenvalues -- -104.80342 -80.04315 -26.30402 -10.56778  -8.04248
 Alpha  occ. eigenvalues --   -8.03929  -8.03900  -7.60303  -5.50144  -5.50013
 Alpha  occ. eigenvalues --   -5.49778  -1.58909  -1.12105  -0.85922  -0.70798
 Alpha  occ. eigenvalues --   -0.69267  -0.66931  -0.55329  -0.49579  -0.47883
 Alpha  occ. eigenvalues --   -0.40274
 Alpha virt. eigenvalues --    0.11890   0.13012   0.19353   0.43037   0.49911
 Alpha virt. eigenvalues --    0.63179   0.66442   0.68562   0.71382   0.74076
 Alpha virt. eigenvalues --    0.79546   0.81916   0.92052   1.01932   1.02797
 Alpha virt. eigenvalues --    1.05923   1.06644   1.12583   1.19572   1.22444
 Alpha virt. eigenvalues --    1.25818   1.51020   1.54656   1.56115   1.60165
 Alpha virt. eigenvalues --    1.78601   1.84126   2.11151   2.38675   3.43318
 Alpha virt. eigenvalues --    3.43587   3.50091   3.51957   3.88031
          Condensed to atoms (all electrons):
               1          2          3          4
     1  P   13.479326   0.172436   0.323928   0.208410
     2  F    0.172436   9.326937  -0.013018  -0.013742
     3  H    0.323928  -0.013018   0.741758  -0.024758
     4  Cl   0.208410  -0.013742  -0.024758  17.145466
 Mulliken charges:
               1
     1  P    0.815900
     2  F   -0.472613
     3  H   -0.027911
     4  Cl  -0.315377
 Sum of Mulliken charges =  -0.00000
 Mulliken charges with hydrogens summed into heavy atoms:
               1
     1  P    0.787990
     2  F   -0.472613
     4  Cl  -0.315377
 Electronic spatial extent (au):  <R**2>=            314.7125
 Charge=             -0.0000 electrons
 Dipole moment (field-independent basis, Debye):
    X=             -0.4218    Y=              1.8541    Z=              0.5412  Tot=              1.9770
 Quadrupole moment (field-independent basis, Debye-Ang):
   XX=            -32.6908   YY=            -30.7259   ZZ=            -30.5558
   XY=             -1.8748   XZ=             -0.4979   YZ=              1.3717
 Traceless Quadrupole moment (field-independent basis, Debye-Ang):
   XX=             -1.3667   YY=              0.5983   ZZ=              0.7684
   XY=             -1.8748   XZ=             -0.4979   YZ=              1.3717
 Octapole moment (field-independent basis, Debye-Ang**2):
  XXX=             -3.7416  YYY=             -5.1472  ZZZ=              1.3994  XYY=             -0.2774
  XXY=              0.4170  XXZ=              0.8248  XZZ=             -2.2769  YZZ=             -2.8837
  YYZ=              1.8163  XYZ=             -1.1205
 Hexadecapole moment (field-independent basis, Debye-Ang**3):
 XXXX=           -250.0309 YYYY=            -81.2647 ZZZZ=            -42.3913 XXXY=             -0.3524
 XXXZ=             -0.6644 YYYX=              7.5307 YYYZ=              2.6723 ZZZX=             -1.3213
 ZZZY=              2.1243 XXYY=            -57.1661 XXZZ=            -50.0639 YYZZ=            -21.6231
 XXYZ=              1.0948 YYXZ=             -1.4428 ZZXY=              3.3015
 N-N= 1.489456503276D+02 E-N=-2.442495109159D+03  KE= 8.997248347298D+02
 Unable to Open any file for archive entry.
 1\1\GINC-LAPTOP-P4FAIH0F\SP\RCCSD-FC\def2SVP\Cl1F1H1P1\RKDQL\26-Jan-20
 24\0\\#N CCSD/def2SVP SP Geom=Connectivity\\GS_freq\\0,1\P\F,1,1.61938
 0487\H,1,1.423594963,2,96.03876349\Cl,1,2.06567151,2,100.7649819,3,96.
 27636268,0\\Version=ES64L-G16RevC.01\State=1-A\HF=-899.9509677\MP2=-90
 0.3826425\MP3=-900.4052968\MP4D=-900.4149979\MP4DQ=-900.4089307\MP4SDQ
 =-900.4127826\CCSD=-900.4122452\RMSD=7.249e-09\PG=C01 [X(Cl1F1H1P1)]\\
 @
 The archive entry for this job was punched.