 Entering Gaussian System, Link 0=/home/rkdql/gaussian_c01/g16/g16
 Initial command:
 /home/rkdql/gaussian_c01/g16/l1.exe "/tmp/webmo-1487/46/Gau-1449.inp" -scrdir="/tmp/webmo-1487/46/"
 Entering Link 1 = /home/rkdql/gaussian_c01/g16/l1.exe PID=      1451.
  
 Copyright (c) 1988-2019, Gaussian, Inc.  All Rights Reserved.
  
 This is part of the Gaussian(R) 16 program.  It is based on
 the Gaussian(R) 09 system (copyright 2009, Gaussian, Inc.),
 the Gaussian(R) 03 system (copyright 2003, Gaussian, Inc.),
 the Gaussian(R) 98 system (copyright 1998, Gaussian, Inc.),
 the Gaussian(R) 94 system (copyright 1995, Gaussian, Inc.),
 the Gaussian 92(TM) system (copyright 1992, Gaussian, Inc.),
 the Gaussian 90(TM) system (copyright 1990, Gaussian, Inc.),
 the Gaussian 88(TM) system (copyright 1988, Gaussian, Inc.),
 the Gaussian 86(TM) system (copyright 1986, Carnegie Mellon
 University), and the Gaussian 82(TM) system (copyright 1983,
 Carnegie Mellon University). Gaussian is a federally registered
 trademark of Gaussian, Inc.
  
 This software contains proprietary and confidential information,
 including trade secrets, belonging to Gaussian, Inc.
  
 This software is provided under written license and may be
 used, copied, transmitted, or stored only in accord with that
 written license.
  
 The following legend is applicable only to US Government
 contracts under FAR:
  
                    RESTRICTED RIGHTS LEGEND
  
 Use, reproduction and disclosure by the US Government is
 subject to restrictions as set forth in subparagraphs (a)
 and (c) of the Commercial Computer Software - Restricted
 Rights clause in FAR 52.227-19.
  
 Gaussian, Inc.
 340 Quinnipiac St., Bldg. 40, Wallingford CT 06492
  
  
 ---------------------------------------------------------------
 Warning -- This program may not be used in any manner that
 competes with the business of Gaussian, Inc. or will provide
 assistance to any competitor of Gaussian, Inc.  The licensee
 of this program is prohibited from giving any competitor of
 Gaussian, Inc. access to this program.  By using this program,
 the user acknowledges that Gaussian, Inc. is engaged in the
 business of creating and licensing software in the field of
 computational chemistry and represents and warrants to the
 licensee that it is not a competitor of Gaussian, Inc. and that
 it will not use this program in any manner prohibited above.
 ---------------------------------------------------------------
  

 Cite this work as:
 Gaussian 16, Revision C.01,
 M. J. Frisch, G. W. Trucks, H. B. Schlegel, G. E. Scuseria, 
 M. A. Robb, J. R. Cheeseman, G. Scalmani, V. Barone, 
 G. A. Petersson, H. Nakatsuji, X. Li, M. Caricato, A. V. Marenich, 
 J. Bloino, B. G. Janesko, R. Gomperts, B. Mennucci, H. P. Hratchian, 
 J. V. Ortiz, A. F. Izmaylov, J. L. Sonnenberg, D. Williams-Young, 
 F. Ding, F. Lipparini, F. Egidi, J. Goings, B. Peng, A. Petrone, 
 T. Henderson, D. Ranasinghe, V. G. Zakrzewski, J. Gao, N. Rega, 
 G. Zheng, W. Liang, M. Hada, M. Ehara, K. Toyota, R. Fukuda, 
 J. Hasegawa, M. Ishida, T. Nakajima, Y. Honda, O. Kitao, H. Nakai, 
 T. Vreven, K. Throssell, J. A. Montgomery, Jr., J. E. Peralta, 
 F. Ogliaro, M. J. Bearpark, J. J. Heyd, E. N. Brothers, K. N. Kudin, 
 V. N. Staroverov, T. A. Keith, R. Kobayashi, J. Normand, 
 K. Raghavachari, A. P. Rendell, J. C. Burant, S. S. Iyengar, 
 J. Tomasi, M. Cossi, J. M. Millam, M. Klene, C. Adamo, R. Cammi, 
 J. W. Ochterski, R. L. Martin, K. Morokuma, O. Farkas, 
 J. B. Foresman, and D. J. Fox, Gaussian, Inc., Wallingford CT, 2019.
 
 ******************************************
 Gaussian 16:  ES64L-G16RevC.01  3-Jul-2019
                25-Jan-2024 
 ******************************************
 --------------------------------------
 #N CCSD/def2SVP FREQ Geom=Connectivity
 --------------------------------------
 1/10=4,30=1,38=11,57=2/1,6,3;
 2/12=2,17=6,18=5,40=1/2;
 3/5=43,7=101,11=9,25=1,30=1,71=1/1,2,3;
 4/69=2/1;
 5/5=2,38=5,98=1/2;
 8/6=4,9=120000,10=1/1,4;
 9/5=7,15=1/13;
 11/28=-8,29=200,42=3/11;
 10/5=6/2;
 6/7=2,8=2,9=2,10=2,22=-1/1;
 7/12=7/1,2,3,16;
 1/38=10/6(3);
 7/8=1,25=1,44=-1/16;
 1/10=4,30=1,38=10/3;
 99//99;
 3/5=43,7=101,11=9,25=1,30=1,71=1/1,2,3;
 4/5=5,16=3,69=2/1;
 5/5=2,38=5,98=1/2;
 8/6=4,9=120000,10=1/1,4;
 9/5=7,15=1/13;
 11/28=-8,29=200,42=3/11;
 10/5=6/2;
 6/7=2,8=2,9=2,10=2,22=-1/1;
 7/7=1,12=7/1,2,3,16;
 1/38=10/6(-9);
 7/8=1,25=1,44=-1/16;
 1/10=4,30=1,38=10/3;
 99//99;
 -------
 GS_freq
 -------
 Symbolic Z-matrix:
 Charge =  0 Multiplicity = 1
 P
 F                    1    B1
 H                    1    B2       2    A1
 Cl                   1    B3       2    A2       3    D1       0
       Variables:
  B1                    1.61938                  
  B2                    1.42359                  
  B3                    2.06567                  
  A1                   96.03876                  
  A2                  100.76498                  
  D1                   96.27636                  
 
 Numerical evaluation of force-constants.
 Nuclear step= 0.001000 Angstroms, electric field step= 0.000333 atomic units, NStep=1.

 GradGradGradGradGradGradGradGradGradGradGradGradGradGradGradGradGradGrad
 Berny optimization.
 Initialization pass.
                       ----------------------------
                       !    Initial Parameters    !
                       ! (Angstroms and Degrees)  !
 ----------------------                            ----------------------
 !      Name          Value   Derivative information (Atomic Units)     !
 ------------------------------------------------------------------------
 !       B1          1.6194   calculate D2E/DX2 analytically            !
 !       B2          1.4236   calculate D2E/DX2 analytically            !
 !       B3          2.0657   calculate D2E/DX2 analytically            !
 !       A1         96.0388   calculate D2E/DX2 analytically            !
 !       A2        100.765    calculate D2E/DX2 analytically            !
 !       D1         96.2764   calculate D2E/DX2 analytically            !
 ------------------------------------------------------------------------
 Trust Radius=3.00D-01 FncErr=1.00D-07 GrdErr=1.00D-07 EigMax=2.50D+02 EigMin=1.00D-04
 Number of steps in this run=      2 maximum allowed number of steps=      2.
 GradGradGradGradGradGradGradGradGradGradGradGradGradGradGradGradGradGrad

                          Input orientation:                          
 ---------------------------------------------------------------------
 Center     Atomic      Atomic             Coordinates (Angstroms)
 Number     Number       Type             X           Y           Z
 ---------------------------------------------------------------------
      1         15           0        0.000000    0.000000    0.000000
      2          9           0        0.000000    0.000000    1.619380
      3          1           0        1.415695    0.000000   -0.149764
      4         17           0       -0.221854   -2.017156   -0.385828
 ---------------------------------------------------------------------
                    Distance matrix (angstroms):
                    1          2          3          4
     1  P    0.000000
     2  F    1.619380   0.000000
     3  H    1.423595   2.265848   0.000000
     4  Cl   2.065672   2.852893   2.608871   0.000000
 Stoichiometry    ClFHP
 Framework group  C1[X(ClFHP)]
 Deg. of freedom     6
 Full point group                 C1      NOp   1
 Largest Abelian subgroup         C1      NOp   1
 Largest concise Abelian subgroup C1      NOp   1
                         Standard orientation:                         
 ---------------------------------------------------------------------
 Center     Atomic      Atomic             Coordinates (Angstroms)
 Number     Number       Type             X           Y           Z
 ---------------------------------------------------------------------
      1         15           0       -0.581550    0.595115   -0.111695
      2          9           0       -1.466993   -0.753555    0.027851
      3          1           0       -0.652786    0.963791    1.261486
      4         17           0        1.328175   -0.182854    0.009604
 ---------------------------------------------------------------------
 Rotational constants (GHZ):          19.5806598           4.3793685           3.6779724
 Standard basis: def2SVP (5D, 7F)
 There are    58 symmetry adapted cartesian basis functions of A   symmetry.
 There are    55 symmetry adapted basis functions of A   symmetry.
    55 basis functions,   106 primitive gaussians,    58 cartesian basis functions
    21 alpha electrons       21 beta electrons
       nuclear repulsion energy       148.9456503276 Hartrees.
 NAtoms=    4 NActive=    4 NUniq=    4 SFac= 1.00D+00 NAtFMM=   60 NAOKFM=F Big=F
 Integral buffers will be    131072 words long.
 Raffenetti 1 integral format.
 Two-electron integral symmetry is turned on.
 One-electron integrals computed using PRISM.
   1 Symmetry operations used in ECPInt.
 ECPInt:  NShTT=     325 NPrTT=    1493 LenC2=     322 LenP2D=    1210.
 LDataN:  DoStor=T MaxTD1= 4 Len=   56
 NBasis=    55 RedAO= T EigKep=  1.68D-02  NBF=    55
 NBsUse=    55 1.00D-06 EigRej= -1.00D+00 NBFU=    55
 ExpMin= 1.05D-01 ExpMax= 1.04D+04 ExpMxC= 1.57D+03 IAcc=3 IRadAn=         5 AccDes= 0.00D+00
 Harris functional with IExCor=  205 and IRadAn=       5 diagonalized for initial guess.
 HarFok:  IExCor=  205 AccDes= 0.00D+00 IRadAn=         5 IDoV= 1 UseB2=F ITyADJ=14
 ICtDFT=  3500011 ScaDFX=  1.000000  1.000000  1.000000  1.000000
 FoFCou: FMM=F IPFlag=           0 FMFlag=      100000 FMFlg1=           0
         NFxFlg=           0 DoJE=T BraDBF=F KetDBF=T FulRan=T
         wScrn=  0.000000 ICntrl=       500 IOpCl=  0 I1Cent=   200000004 NGrid=           0
         NMat0=    1 NMatS0=      1 NMatT0=    0 NMatD0=    1 NMtDS0=    0 NMtDT0=    0
 Petite list used in FoFCou.
 Keep R1 ints in memory in canonical form, NReq=2030306.
 Requested convergence on RMS density matrix=1.00D-08 within 128 cycles.
 Requested convergence on MAX density matrix=1.00D-06.
 Requested convergence on             energy=1.00D-06.
 No special actions if energy rises.
 SCF Done:  E(RHF) =  -899.950967686     A.U. after   12 cycles
            NFock= 12  Conv=0.72D-08     -V/T= 2.0003
 ExpMin= 1.05D-01 ExpMax= 1.04D+04 ExpMxC= 1.57D+03 IAcc=3 IRadAn=         5 AccDes= 0.00D+00
 HarFok:  IExCor=  205 AccDes= 0.00D+00 IRadAn=         5 IDoV=-2 UseB2=F ITyADJ=14
 ICtDFT= 12500011 ScaDFX=  1.000000  1.000000  1.000000  1.000000
 Range of M.O.s used for correlation:    12    55
 NBasis=    55 NAE=    21 NBE=    21 NFC=    11 NFV=     0
 NROrb=     44 NOA=    10 NOB=    10 NVA=    34 NVB=    34
 Semi-Direct transformation.
 ModeAB=           2 MOrb=            10 LenV=     104642533
 LASXX=       347920 LTotXX=      347920 LenRXX=      347920
 LTotAB=      372350 MaxLAS=      752840 LenRXY=      752840
 NonZer=      775720 LenScr=     1744896 LnRSAI=           0
 LnScr1=           0 LExtra=           0 Total=      2845656
 MaxDsk=          -1 SrtSym=           F ITran=            4
 JobTyp=0 Pass  1:  I=   1 to  10.
 (rs|ai) integrals will be sorted in core.
 SymMOI:  orbitals are not symmetric.
 Spin components of T(2) and E(2):
     alpha-alpha T2 =       0.1670147491D-01 E2=     -0.5555676070D-01
     alpha-beta  T2 =       0.1001508458D+00 E2=     -0.3205612908D+00
     beta-beta   T2 =       0.1670147491D-01 E2=     -0.5555676070D-01
 ANorm=    0.1064684834D+01
 E2 =    -0.4316748122D+00 EUMP2 =    -0.90038264249841D+03
 Keep R2 and R3 ints in memory in canonical form, NReq=3220361.
 CIDS: In Core Option IDoMem=           1.
 Iterations=  50 Convergence= 0.100D-07
 Produce multiple copies of IABC intergrals
 Iteration Nr.   1
 **********************
 DD1Dir will call FoFMem   1 times, MxPair=       110
 NAB=    55 NAA=     0 NBB=     0.
 MP4(R+Q)=  0.60671950D-02
 E3=       -0.22654268D-01        EUMP3=      -0.90040529677D+03
 E4(DQ)=   -0.36339752D-02        UMP4(DQ)=   -0.90040893074D+03
 E4(SDQ)=  -0.74858661D-02        UMP4(SDQ)=  -0.90041278263D+03
 DE(Corr)= -0.44797721     E(Corr)=     -900.39894490    
 NORM(A)=   0.10744323D+01
 Iteration Nr.   2
 **********************
 DD1Dir will call FoFMem   1 times, MxPair=       110
 NAB=    55 NAA=     0 NBB=     0.
 DE(Corr)= -0.45901827     E(CORR)=     -900.40998595     Delta=-1.10D-02
 NORM(A)=   0.10801025D+01
 Iteration Nr.   3
 **********************
 DD1Dir will call FoFMem   1 times, MxPair=       110
 NAB=    55 NAA=     0 NBB=     0.
 DE(Corr)= -0.46005798     E(CORR)=     -900.41102566     Delta=-1.04D-03
 NORM(A)=   0.10816989D+01
 Iteration Nr.   4
 **********************
 DD1Dir will call FoFMem   1 times, MxPair=       110
 NAB=    55 NAA=     0 NBB=     0.
 DE(Corr)= -0.46118145     E(CORR)=     -900.41214913     Delta=-1.12D-03
 NORM(A)=   0.10820790D+01
 Iteration Nr.   5
 **********************
 DD1Dir will call FoFMem   1 times, MxPair=       110
 NAB=    55 NAA=     0 NBB=     0.
 DE(Corr)= -0.46126533     E(CORR)=     -900.41223301     Delta=-8.39D-05
 NORM(A)=   0.10821937D+01
 Iteration Nr.   6
 **********************
 DD1Dir will call FoFMem   1 times, MxPair=       110
 NAB=    55 NAA=     0 NBB=     0.
 DE(Corr)= -0.46127723     E(CORR)=     -900.41224492     Delta=-1.19D-05
 NORM(A)=   0.10822132D+01
 Iteration Nr.   7
 **********************
 DD1Dir will call FoFMem   1 times, MxPair=       110
 NAB=    55 NAA=     0 NBB=     0.
 DE(Corr)= -0.46127831     E(CORR)=     -900.41224599     Delta=-1.07D-06
 NORM(A)=   0.10822156D+01
 Iteration Nr.   8
 **********************
 DD1Dir will call FoFMem   1 times, MxPair=       110
 NAB=    55 NAA=     0 NBB=     0.
 DE(Corr)= -0.46127632     E(CORR)=     -900.41224400     Delta= 1.99D-06
 NORM(A)=   0.10822168D+01
 Iteration Nr.   9
 **********************
 DD1Dir will call FoFMem   1 times, MxPair=       110
 NAB=    55 NAA=     0 NBB=     0.
 DE(Corr)= -0.46127757     E(CORR)=     -900.41224525     Delta=-1.25D-06
 NORM(A)=   0.10822174D+01
 Iteration Nr.  10
 **********************
 DD1Dir will call FoFMem   1 times, MxPair=       110
 NAB=    55 NAA=     0 NBB=     0.
 DE(Corr)= -0.46127755     E(CORR)=     -900.41224524     Delta= 1.25D-08
 NORM(A)=   0.10822178D+01
 Iteration Nr.  11
 **********************
 DD1Dir will call FoFMem   1 times, MxPair=       110
 NAB=    55 NAA=     0 NBB=     0.
 DE(Corr)= -0.46127795     E(CORR)=     -900.41224564     Delta=-4.02D-07
 NORM(A)=   0.10822180D+01
 Iteration Nr.  12
 **********************
 DD1Dir will call FoFMem   1 times, MxPair=       110
 NAB=    55 NAA=     0 NBB=     0.
 DE(Corr)= -0.46127797     E(CORR)=     -900.41224565     Delta=-1.06D-08
 NORM(A)=   0.10822182D+01
 Iteration Nr.  13
 **********************
 DD1Dir will call FoFMem   1 times, MxPair=       110
 NAB=    55 NAA=     0 NBB=     0.
 DE(Corr)= -0.46127801     E(CORR)=     -900.41224570     Delta=-4.68D-08
 NORM(A)=   0.10822182D+01
 Iteration Nr.  14
 **********************
 DD1Dir will call FoFMem   1 times, MxPair=       110
 NAB=    55 NAA=     0 NBB=     0.
 DE(Corr)= -0.46127802     E(CORR)=     -900.41224570     Delta=-3.37D-09
 NORM(A)=   0.10822182D+01
 Wavefunction amplitudes converged. E(Corr)=     -900.41224570    
 Largest amplitude= 5.29D-02

 Z-amplitude iterations

 Iteration Nr.   1
 **********************
 DD1Dir will call FoFMem   1 times, MxPair=       110
 NAB=    55 NAA=     0 NBB=     0.
 DE(Z)= -0.45239161     E(Z)=     -900.40335929     Delta= 8.89D-03
 NORM(A)=   0.10822173D+01
 Iteration Nr.   2
 **********************
 DD1Dir will call FoFMem   1 times, MxPair=       110
 NAB=    55 NAA=     0 NBB=     0.
 DE(Z)= -0.45239124     E(Z)=     -900.40335893     Delta= 3.67D-07
 NORM(A)=   0.10822146D+01
 Iteration Nr.   3
 **********************
 DD1Dir will call FoFMem   1 times, MxPair=       110
 NAB=    55 NAA=     0 NBB=     0.
 DE(Z)= -0.45239045     E(Z)=     -900.40335813     Delta= 7.92D-07
 NORM(A)=   0.10822146D+01
 Iteration Nr.   4
 **********************
 DD1Dir will call FoFMem   1 times, MxPair=       110
 NAB=    55 NAA=     0 NBB=     0.
 DE(Z)= -0.45239038     E(Z)=     -900.40335807     Delta= 6.26D-08
 NORM(A)=   0.10821885D+01
 Iteration Nr.   5
 **********************
 DD1Dir will call FoFMem   1 times, MxPair=       110
 NAB=    55 NAA=     0 NBB=     0.
 DE(Z)= -0.45238184     E(Z)=     -900.40334952     Delta= 8.55D-06
 NORM(A)=   0.10761937D+01
 Iteration Nr.   6
 **********************
 DD1Dir will call FoFMem   1 times, MxPair=       110
 NAB=    55 NAA=     0 NBB=     0.
 DE(Z)= -0.45026077     E(Z)=     -900.40122845     Delta= 2.12D-03
 NORM(A)=   0.10761959D+01
 Iteration Nr.   7
 **********************
 DD1Dir will call FoFMem   1 times, MxPair=       110
 NAB=    55 NAA=     0 NBB=     0.
 DE(Z)= -0.45026220     E(Z)=     -900.40122988     Delta=-1.43D-06
 NORM(A)=   0.10761939D+01
 Iteration Nr.   8
 **********************
 DD1Dir will call FoFMem   1 times, MxPair=       110
 NAB=    55 NAA=     0 NBB=     0.
 DE(Z)= -0.45026178     E(Z)=     -900.40122947     Delta= 4.15D-07
 NORM(A)=   0.10761936D+01
 Iteration Nr.   9
 **********************
 DD1Dir will call FoFMem   1 times, MxPair=       110
 NAB=    55 NAA=     0 NBB=     0.
 DE(Z)= -0.45026129     E(Z)=     -900.40122898     Delta= 4.89D-07
 NORM(A)=   0.10761934D+01
 Iteration Nr.  10
 **********************
 DD1Dir will call FoFMem   1 times, MxPair=       110
 NAB=    55 NAA=     0 NBB=     0.
 DE(Z)= -0.45026144     E(Z)=     -900.40122913     Delta=-1.52D-07
 NORM(A)=   0.10761934D+01
 Iteration Nr.  11
 **********************
 DD1Dir will call FoFMem   1 times, MxPair=       110
 NAB=    55 NAA=     0 NBB=     0.
 DE(Z)= -0.45026136     E(Z)=     -900.40122904     Delta= 8.81D-08
 NORM(A)=   0.10761935D+01
 Iteration Nr.  12
 **********************
 DD1Dir will call FoFMem   1 times, MxPair=       110
 NAB=    55 NAA=     0 NBB=     0.
 DE(Z)= -0.45026137     E(Z)=     -900.40122906     Delta=-1.91D-08
 NORM(A)=   0.10761935D+01
 Iteration Nr.  13
 **********************
 DD1Dir will call FoFMem   1 times, MxPair=       110
 NAB=    55 NAA=     0 NBB=     0.
 DE(Z)= -0.45026138     E(Z)=     -900.40122907     Delta=-5.94D-09
 NORM(A)=   0.10761935D+01
 Z-amplitudes converged.
 Discarding MO integrals.
          IDoAtm=1111
          Differentiating once with respect to electric field.
                with respect to dipole field.
          Differentiating once with respect to nuclear coordinates.
 Keep R1 ints in memory in canonical form, NReq=2031308.
          There are     1 degrees of freedom in the 1st order CPHF.  IDoFFX=0 NUNeed=     1.
 LinEq1:  Iter=  0 NonCon=     1 RMS=4.70D-03 Max=4.79D-02 NDo=     1
 AX will form     1 AO Fock derivatives at one time.
 LinEq1:  Iter=  1 NonCon=     1 RMS=1.29D-03 Max=1.04D-02 NDo=     1
 LinEq1:  Iter=  2 NonCon=     1 RMS=3.76D-04 Max=3.24D-03 NDo=     1
 LinEq1:  Iter=  3 NonCon=     1 RMS=1.10D-04 Max=8.53D-04 NDo=     1
 LinEq1:  Iter=  4 NonCon=     1 RMS=2.82D-05 Max=2.00D-04 NDo=     1
 LinEq1:  Iter=  5 NonCon=     1 RMS=6.91D-06 Max=6.12D-05 NDo=     1
 LinEq1:  Iter=  6 NonCon=     1 RMS=1.83D-06 Max=2.43D-05 NDo=     1
 LinEq1:  Iter=  7 NonCon=     1 RMS=4.66D-07 Max=3.64D-06 NDo=     1
 LinEq1:  Iter=  8 NonCon=     1 RMS=9.21D-08 Max=5.98D-07 NDo=     1
 LinEq1:  Iter=  9 NonCon=     1 RMS=1.86D-08 Max=1.75D-07 NDo=     1
 LinEq1:  Iter= 10 NonCon=     1 RMS=3.12D-09 Max=2.39D-08 NDo=     1
 LinEq1:  Iter= 11 NonCon=     1 RMS=4.57D-10 Max=3.05D-09 NDo=     1
 LinEq1:  Iter= 12 NonCon=     0 RMS=8.59D-11 Max=5.65D-10 NDo=     1
 Linear equations converged to 1.000D-10 1.000D-09 after    12 iterations.
 End of Minotr F.D. properties file   721 does not exist.
 End of Minotr F.D. properties file   722 does not exist.
 End of Minotr F.D. properties file   788 does not exist.

 **********************************************************************

            Population analysis using the CC Density.

 **********************************************************************

 Orbital symmetries:
       Occupied  (A) (A) (A) (A) (A) (A) (A) (A) (A) (A) (A) (A)
                 (A) (A) (A) (A) (A) (A) (A) (A) (A)
       Virtual   (A) (A) (A) (A) (A) (A) (A) (A) (A) (A) (A) (A)
                 (A) (A) (A) (A) (A) (A) (A) (A) (A) (A) (A) (A)
                 (A) (A) (A) (A) (A) (A) (A) (A) (A) (A)
 The electronic state is 1-A.
 Alpha  occ. eigenvalues -- -104.80342 -80.04315 -26.30402 -10.56778  -8.04248
 Alpha  occ. eigenvalues --   -8.03929  -8.03900  -7.60303  -5.50144  -5.50013
 Alpha  occ. eigenvalues --   -5.49778  -1.58909  -1.12105  -0.85922  -0.70798
 Alpha  occ. eigenvalues --   -0.69267  -0.66931  -0.55329  -0.49579  -0.47883
 Alpha  occ. eigenvalues --   -0.40274
 Alpha virt. eigenvalues --    0.11890   0.13012   0.19353   0.43037   0.49911
 Alpha virt. eigenvalues --    0.63179   0.66442   0.68562   0.71382   0.74076
 Alpha virt. eigenvalues --    0.79546   0.81916   0.92052   1.01932   1.02797
 Alpha virt. eigenvalues --    1.05923   1.06644   1.12583   1.19572   1.22444
 Alpha virt. eigenvalues --    1.25818   1.51020   1.54656   1.56115   1.60165
 Alpha virt. eigenvalues --    1.78601   1.84126   2.11151   2.38675   3.43318
 Alpha virt. eigenvalues --    3.43587   3.50091   3.51957   3.88031
          Condensed to atoms (all electrons):
               1          2          3          4
     1  P   13.658342   0.180123   0.268744   0.183179
     2  F    0.180123   9.256317  -0.014195  -0.015104
     3  H    0.268744  -0.014195   0.803605  -0.022131
     4  Cl   0.183179  -0.015104  -0.022131  17.120503
 Mulliken charges:
               1
     1  P    0.709611
     2  F   -0.407141
     3  H   -0.036023
     4  Cl  -0.266447
 Sum of Mulliken charges =  -0.00000
 Mulliken charges with hydrogens summed into heavy atoms:
               1
     1  P    0.673588
     2  F   -0.407141
     4  Cl  -0.266447
 Electronic spatial extent (au):  <R**2>=            314.3184
 Charge=             -0.0000 electrons
 Dipole moment (field-independent basis, Debye):
    X=             -0.3458    Y=              1.5740    Z=              0.4376  Tot=              1.6699
 Quadrupole moment (field-independent basis, Debye-Ang):
   XX=            -32.2432   YY=            -30.6199   ZZ=            -30.5793
   XY=             -1.6211   XZ=             -0.3976   YZ=              1.1433
 Traceless Quadrupole moment (field-independent basis, Debye-Ang):
   XX=             -1.0957   YY=              0.5275   ZZ=              0.5681
   XY=             -1.6211   XZ=             -0.3976   YZ=              1.1433
 Octapole moment (field-independent basis, Debye-Ang**2):
  XXX=             -3.2699  YYY=             -5.5825  ZZZ=              0.9723  XYY=             -0.2819
  XXY=             -0.0781  XXZ=              0.7299  XZZ=             -2.0024  YZZ=             -2.9712
  YYZ=              1.5347  XYZ=             -0.9253
 Hexadecapole moment (field-independent basis, Debye-Ang**3):
 XXXX=           -248.3744 YYYY=            -81.3577 ZZZZ=            -42.8661 XXXY=              0.5064
 XXXZ=             -0.5624 YYYX=              7.5917 YYYZ=              2.2096 ZZZX=             -0.9667
 ZZZY=              1.5279 XXYY=            -56.6568 XXZZ=            -49.8703 YYZZ=            -21.6810
 XXYZ=              0.8899 YYXZ=             -1.2137 ZZXY=              3.2781
 N-N= 1.489456503276D+02 E-N=-2.442867340973D+03  KE= 9.001874341201D+02
   1 Symmetry operations used in ECPInt.
 ECPInt:  NShTT=     325 NPrTT=    1493 LenC2=     322 LenP2D=    1210.
 LDataN:  DoStor=T MaxTD1= 5 Len=  102
 Calling FoFJK, ICntrl=  10002127 FMM=F ISym2X=0 I1Cent= 0 IOpClX= 0 NMat=1 NMatS=1 NMatT=0.
 ***** Axes restored to original set *****
 -------------------------------------------------------------------
 Center     Atomic                   Forces (Hartrees/Bohr)
 Number     Number              X              Y              Z
 -------------------------------------------------------------------
      1       15          -0.000022730    0.000121198   -0.000074711
      2        9           0.000093461   -0.000036638   -0.000056538
      3        1          -0.000106208   -0.000055161    0.000111557
      4       17           0.000035477   -0.000029399    0.000019692
 -------------------------------------------------------------------
 Cartesian Forces:  Max     0.000121198 RMS     0.000072652
 -----------------------------------------------------------------------------------------------
                       Internal Coordinate Forces (Hartree/Bohr or radian)
  Cent   Atom   N1       Length/X         N2         Alpha/Y        N3         Beta/Z          J
 -----------------------------------------------------------------------------------------------
      1  P 
      2  F        1  -0.000057(     1)
      3  H        1  -0.000117(     2)      2  -0.000268(     4)
      4  Cl       1   0.000021(     3)      2  -0.000094(     5)      3  -0.000148(     6)     0
 -----------------------------------------------------------------------------------------------
 Internal  Forces:  Max     0.000268388 RMS     0.000141456
 NDeriv=     12 NFrqRd=  0 NDerD0=      0 MskFDP=       0 MskDFD=       0 MskDF0=       0
 At 1st pt F.D. properties file   721 does not exist.
 At 1st pt F.D. properties file   722 does not exist.
 D2Numr ... symmetry will be used.
 Standard basis: def2SVP (5D, 7F)
    55 basis functions,   106 primitive gaussians,    58 cartesian basis functions
    21 alpha electrons       21 beta electrons
       nuclear repulsion energy       148.9598055057 Hartrees.
 NAtoms=    4 NActive=    4 NUniq=    4 SFac= 1.00D+00 NAtFMM=   60 NAOKFM=F Big=F
 Integral buffers will be    131072 words long.
 Raffenetti 1 integral format.
 Two-electron integral symmetry is turned off.
 One-electron integrals computed using PRISM.
   1 Symmetry operations used in ECPInt.
 ECPInt:  NShTT=     325 NPrTT=    1493 LenC2=     322 LenP2D=    1210.
 LDataN:  DoStor=T MaxTD1= 4 Len=   56
 NBasis=    55 RedAO= T EigKep=  1.68D-02  NBF=    55
 NBsUse=    55 1.00D-06 EigRej= -1.00D+00 NBFU=    55
 Initial guess from the checkpoint file:  "/tmp/webmo-1487/46/Gau-1451.chk"
 B after Tr=     0.000675    0.000000   -0.000000
         Rot=    1.000000    0.000000    0.000015    0.000067 Ang=   0.01 deg.
 Keep R1 ints in memory in canonical form, NReq=2030168.
 Requested convergence on RMS density matrix=1.00D-08 within 128 cycles.
 Requested convergence on MAX density matrix=1.00D-06.
 Requested convergence on             energy=1.00D-06.
 No special actions if energy rises.
 SCF Done:  E(RHF) =  -899.950953320     A.U. after    8 cycles
            NFock=  8  Conv=0.68D-08     -V/T= 2.0003
 ExpMin= 1.05D-01 ExpMax= 1.04D+04 ExpMxC= 1.57D+03 IAcc=3 IRadAn=         5 AccDes= 0.00D+00
 HarFok:  IExCor=  205 AccDes= 0.00D+00 IRadAn=         5 IDoV=-2 UseB2=F ITyADJ=14
 ICtDFT= 12500011 ScaDFX=  1.000000  1.000000  1.000000  1.000000
 Range of M.O.s used for correlation:    12    55
 NBasis=    55 NAE=    21 NBE=    21 NFC=    11 NFV=     0
 NROrb=     44 NOA=    10 NOB=    10 NVA=    34 NVB=    34
 Semi-Direct transformation.
 ModeAB=           2 MOrb=            10 LenV=     104642519
 LASXX=       347920 LTotXX=      347920 LenRXX=      347920
 LTotAB=      372350 MaxLAS=      752840 LenRXY=      752840
 NonZer=      775720 LenScr=     1744896 LnRSAI=           0
 LnScr1=           0 LExtra=           0 Total=      2845656
 MaxDsk=          -1 SrtSym=           F ITran=            4
 JobTyp=0 Pass  1:  I=   1 to  10.
 (rs|ai) integrals will be sorted in core.
 Spin components of T(2) and E(2):
     alpha-alpha T2 =       0.1670374979D-01 E2=     -0.5556096511D-01
     alpha-beta  T2 =       0.1001533600D+00 E2=     -0.3205719050D+00
     beta-beta   T2 =       0.1670374979D-01 E2=     -0.5556096511D-01
 ANorm=    0.1064688151D+01
 E2 =    -0.4316938352D+00 EUMP2 =    -0.90038264715474D+03
 Keep R2 and R3 ints in memory in canonical form, NReq=3220223.
 CIDS: In Core Option IDoMem=           1.
 Iterations=  50 Convergence= 0.100D-07
 Produce multiple copies of IABC intergrals
 Iteration Nr.   1
 **********************
 DD1Dir will call FoFMem   1 times, MxPair=       110
 NAB=    55 NAA=     0 NBB=     0.
 MP4(R+Q)=  0.60671531D-02
 E3=       -0.22648920D-01        EUMP3=      -0.90040529607D+03
 E4(DQ)=   -0.36342416D-02        UMP4(DQ)=   -0.90040893032D+03
 E4(SDQ)=  -0.74867205D-02        UMP4(SDQ)=  -0.90041278280D+03
 DE(Corr)= -0.44799086     E(Corr)=     -900.39894418    
 NORM(A)=   0.10744329D+01
 Iteration Nr.   2
 **********************
 DD1Dir will call FoFMem   1 times, MxPair=       110
 NAB=    55 NAA=     0 NBB=     0.
 DE(Corr)= -0.45903267     E(CORR)=     -900.40998599     Delta=-1.10D-02
 NORM(A)=   0.10801022D+01
 Iteration Nr.   3
 **********************
 DD1Dir will call FoFMem   1 times, MxPair=       110
 NAB=    55 NAA=     0 NBB=     0.
 DE(Corr)= -0.46007162     E(CORR)=     -900.41102494     Delta=-1.04D-03
 NORM(A)=   0.10816985D+01
 Iteration Nr.   4
 **********************
 DD1Dir will call FoFMem   1 times, MxPair=       110
 NAB=    55 NAA=     0 NBB=     0.
 DE(Corr)= -0.46119526     E(CORR)=     -900.41214858     Delta=-1.12D-03
 NORM(A)=   0.10820785D+01
 Iteration Nr.   5
 **********************
 DD1Dir will call FoFMem   1 times, MxPair=       110
 NAB=    55 NAA=     0 NBB=     0.
 DE(Corr)= -0.46127914     E(CORR)=     -900.41223246     Delta=-8.39D-05
 NORM(A)=   0.10821932D+01
 Iteration Nr.   6
 **********************
 DD1Dir will call FoFMem   1 times, MxPair=       110
 NAB=    55 NAA=     0 NBB=     0.
 DE(Corr)= -0.46129104     E(CORR)=     -900.41224436     Delta=-1.19D-05
 NORM(A)=   0.10822127D+01
 Iteration Nr.   7
 **********************
 DD1Dir will call FoFMem   1 times, MxPair=       110
 NAB=    55 NAA=     0 NBB=     0.
 DE(Corr)= -0.46129211     E(CORR)=     -900.41224543     Delta=-1.07D-06
 NORM(A)=   0.10822150D+01
 Iteration Nr.   8
 **********************
 DD1Dir will call FoFMem   1 times, MxPair=       110
 NAB=    55 NAA=     0 NBB=     0.
 DE(Corr)= -0.46129012     E(CORR)=     -900.41224344     Delta= 1.99D-06
 NORM(A)=   0.10822163D+01
 Iteration Nr.   9
 **********************
 DD1Dir will call FoFMem   1 times, MxPair=       110
 NAB=    55 NAA=     0 NBB=     0.
 DE(Corr)= -0.46129137     E(CORR)=     -900.41224469     Delta=-1.25D-06
 NORM(A)=   0.10822169D+01
 Iteration Nr.  10
 **********************
 DD1Dir will call FoFMem   1 times, MxPair=       110
 NAB=    55 NAA=     0 NBB=     0.
 DE(Corr)= -0.46129136     E(CORR)=     -900.41224468     Delta= 1.21D-08
 NORM(A)=   0.10822173D+01
 Iteration Nr.  11
 **********************
 DD1Dir will call FoFMem   1 times, MxPair=       110
 NAB=    55 NAA=     0 NBB=     0.
 DE(Corr)= -0.46129176     E(CORR)=     -900.41224508     Delta=-4.01D-07
 NORM(A)=   0.10822175D+01
 Iteration Nr.  12
 **********************
 DD1Dir will call FoFMem   1 times, MxPair=       110
 NAB=    55 NAA=     0 NBB=     0.
 DE(Corr)= -0.46129177     E(CORR)=     -900.41224509     Delta=-1.07D-08
 NORM(A)=   0.10822176D+01
 Iteration Nr.  13
 **********************
 DD1Dir will call FoFMem   1 times, MxPair=       110
 NAB=    55 NAA=     0 NBB=     0.
 DE(Corr)= -0.46129182     E(CORR)=     -900.41224514     Delta=-4.67D-08
 NORM(A)=   0.10822177D+01
 Iteration Nr.  14
 **********************
 DD1Dir will call FoFMem   1 times, MxPair=       110
 NAB=    55 NAA=     0 NBB=     0.
 DE(Corr)= -0.46129182     E(CORR)=     -900.41224514     Delta=-3.36D-09
 NORM(A)=   0.10822177D+01
 Wavefunction amplitudes converged. E(Corr)=     -900.41224514    
 Largest amplitude= 5.30D-02

 Z-amplitude iterations

 Iteration Nr.   1
 **********************
 DD1Dir will call FoFMem   1 times, MxPair=       110
 NAB=    55 NAA=     0 NBB=     0.
 DE(Z)= -0.45240578     E(Z)=     -900.40335910     Delta= 8.89D-03
 NORM(A)=   0.10822168D+01
 Iteration Nr.   2
 **********************
 DD1Dir will call FoFMem   1 times, MxPair=       110
 NAB=    55 NAA=     0 NBB=     0.
 DE(Z)= -0.45240541     E(Z)=     -900.40335873     Delta= 3.71D-07
 NORM(A)=   0.10822145D+01
 Iteration Nr.   3
 **********************
 DD1Dir will call FoFMem   1 times, MxPair=       110
 NAB=    55 NAA=     0 NBB=     0.
 DE(Z)= -0.45240476     E(Z)=     -900.40335808     Delta= 6.46D-07
 NORM(A)=   0.10822145D+01
 Iteration Nr.   4
 **********************
 DD1Dir will call FoFMem   1 times, MxPair=       110
 NAB=    55 NAA=     0 NBB=     0.
 DE(Z)= -0.45240470     E(Z)=     -900.40335802     Delta= 5.48D-08
 NORM(A)=   0.10821992D+01
 Iteration Nr.   5
 **********************
 DD1Dir will call FoFMem   1 times, MxPair=       110
 NAB=    55 NAA=     0 NBB=     0.
 DE(Z)= -0.45239971     E(Z)=     -900.40335303     Delta= 4.99D-06
 NORM(A)=   0.10761935D+01
 Iteration Nr.   6
 **********************
 DD1Dir will call FoFMem   1 times, MxPair=       110
 NAB=    55 NAA=     0 NBB=     0.
 DE(Z)= -0.45027491     E(Z)=     -900.40122823     Delta= 2.12D-03
 NORM(A)=   0.10761955D+01
 Iteration Nr.   7
 **********************
 DD1Dir will call FoFMem   1 times, MxPair=       110
 NAB=    55 NAA=     0 NBB=     0.
 DE(Z)= -0.45027607     E(Z)=     -900.40122939     Delta=-1.15D-06
 NORM(A)=   0.10761938D+01
 Iteration Nr.   8
 **********************
 DD1Dir will call FoFMem   1 times, MxPair=       110
 NAB=    55 NAA=     0 NBB=     0.
 DE(Z)= -0.45027606     E(Z)=     -900.40122938     Delta= 8.17D-09
 NORM(A)=   0.10761934D+01
 Iteration Nr.   9
 **********************
 DD1Dir will call FoFMem   1 times, MxPair=       110
 NAB=    55 NAA=     0 NBB=     0.
 DE(Z)= -0.45027539     E(Z)=     -900.40122871     Delta= 6.75D-07
 NORM(A)=   0.10761932D+01
 Iteration Nr.  10
 **********************
 DD1Dir will call FoFMem   1 times, MxPair=       110
 NAB=    55 NAA=     0 NBB=     0.
 DE(Z)= -0.45027548     E(Z)=     -900.40122880     Delta=-9.85D-08
 NORM(A)=   0.10761931D+01
 Iteration Nr.  11
 **********************
 DD1Dir will call FoFMem   1 times, MxPair=       110
 NAB=    55 NAA=     0 NBB=     0.
 DE(Z)= -0.45027539     E(Z)=     -900.40122871     Delta= 9.48D-08
 NORM(A)=   0.10761932D+01
 Iteration Nr.  12
 **********************
 DD1Dir will call FoFMem   1 times, MxPair=       110
 NAB=    55 NAA=     0 NBB=     0.
 DE(Z)= -0.45027541     E(Z)=     -900.40122873     Delta=-1.55D-08
 NORM(A)=   0.10761932D+01
 Iteration Nr.  13
 **********************
 DD1Dir will call FoFMem   1 times, MxPair=       110
 NAB=    55 NAA=     0 NBB=     0.
 DE(Z)= -0.45027542     E(Z)=     -900.40122874     Delta=-1.24D-08
 NORM(A)=   0.10761932D+01
 Iteration Nr.  14
 **********************
 DD1Dir will call FoFMem   1 times, MxPair=       110
 NAB=    55 NAA=     0 NBB=     0.
 DE(Z)= -0.45027542     E(Z)=     -900.40122874     Delta=-4.48D-10
 NORM(A)=   0.10761932D+01
 Z-amplitudes converged.
 Discarding MO integrals.
          IDoAtm=1111
          Differentiating once with respect to electric field.
                with respect to dipole field.
          Differentiating once with respect to nuclear coordinates.
 Keep R1 ints in memory in canonical form, NReq=2031170.
          There are     1 degrees of freedom in the 1st order CPHF.  IDoFFX=0 NUNeed=     1.
 LinEq1:  Iter=  0 NonCon=     1 RMS=4.70D-03 Max=4.76D-02 NDo=     1
 AX will form     1 AO Fock derivatives at one time.
 LinEq1:  Iter=  1 NonCon=     1 RMS=1.29D-03 Max=1.04D-02 NDo=     1
 LinEq1:  Iter=  2 NonCon=     1 RMS=3.77D-04 Max=3.24D-03 NDo=     1
 LinEq1:  Iter=  3 NonCon=     1 RMS=1.10D-04 Max=8.52D-04 NDo=     1
 LinEq1:  Iter=  4 NonCon=     1 RMS=2.82D-05 Max=2.00D-04 NDo=     1
 LinEq1:  Iter=  5 NonCon=     1 RMS=6.92D-06 Max=6.14D-05 NDo=     1
 LinEq1:  Iter=  6 NonCon=     1 RMS=1.83D-06 Max=2.44D-05 NDo=     1
 LinEq1:  Iter=  7 NonCon=     1 RMS=4.66D-07 Max=3.64D-06 NDo=     1
 LinEq1:  Iter=  8 NonCon=     1 RMS=9.21D-08 Max=5.91D-07 NDo=     1
 LinEq1:  Iter=  9 NonCon=     1 RMS=1.86D-08 Max=1.73D-07 NDo=     1
 LinEq1:  Iter= 10 NonCon=     1 RMS=3.12D-09 Max=2.38D-08 NDo=     1
 LinEq1:  Iter= 11 NonCon=     1 RMS=4.57D-10 Max=3.06D-09 NDo=     1
 LinEq1:  Iter= 12 NonCon=     0 RMS=8.59D-11 Max=5.66D-10 NDo=     1
 Linear equations converged to 1.000D-10 1.000D-09 after    12 iterations.
 End of Minotr F.D. properties file   721 does not exist.
 End of Minotr F.D. properties file   722 does not exist.
 End of Minotr F.D. properties file   788 does not exist.

 **********************************************************************

            Population analysis using the CC Density.

 **********************************************************************

 Alpha  occ. eigenvalues -- -104.80355 -80.04309 -26.30382 -10.56793  -8.04263
 Alpha  occ. eigenvalues --   -8.03945  -8.03915  -7.60297  -5.50138  -5.50007
 Alpha  occ. eigenvalues --   -5.49772  -1.58875  -1.12135  -0.85909  -0.70774
 Alpha  occ. eigenvalues --   -0.69244  -0.66916  -0.55347  -0.49597  -0.47899
 Alpha  occ. eigenvalues --   -0.40270
 Alpha virt. eigenvalues --    0.11907   0.13014   0.19352   0.43028   0.49914
 Alpha virt. eigenvalues --    0.63163   0.66431   0.68546   0.71379   0.74077
 Alpha virt. eigenvalues --    0.79540   0.81920   0.92058   1.01911   1.02781
 Alpha virt. eigenvalues --    1.05916   1.06638   1.12576   1.19596   1.22454
 Alpha virt. eigenvalues --    1.25826   1.51025   1.54667   1.56128   1.60185
 Alpha virt. eigenvalues --    1.78611   1.84135   2.11167   2.38671   3.43341
 Alpha virt. eigenvalues --    3.43610   3.50098   3.51961   3.87974
          Condensed to atoms (all electrons):
               1          2          3          4
     1  P   13.658471   0.180037   0.268771   0.183145
     2  F    0.180037   9.256720  -0.014202  -0.015098
     3  H    0.268771  -0.014202   0.803597  -0.022136
     4  Cl   0.183145  -0.015098  -0.022136  17.120179
 Mulliken charges:
               1
     1  P    0.709576
     2  F   -0.407457
     3  H   -0.036030
     4  Cl  -0.266090
 Sum of Mulliken charges =  -0.00000
 Mulliken charges with hydrogens summed into heavy atoms:
               1
     1  P    0.673546
     2  F   -0.407457
     4  Cl  -0.266090
 Electronic spatial extent (au):  <R**2>=            314.2580
 Charge=             -0.0000 electrons
 Dipole moment (field-independent basis, Debye):
    X=             -0.3380    Y=              1.5739    Z=              0.4378  Tot=              1.6683
 Quadrupole moment (field-independent basis, Debye-Ang):
   XX=            -32.2453   YY=            -30.6207   ZZ=            -30.5790
   XY=             -1.6223   XZ=             -0.3972   YZ=              1.1438
 Traceless Quadrupole moment (field-independent basis, Debye-Ang):
   XX=             -1.0970   YY=              0.5276   ZZ=              0.5693
   XY=             -1.6223   XZ=             -0.3972   YZ=              1.1438
 Octapole moment (field-independent basis, Debye-Ang**2):
  XXX=             -3.2834  YYY=             -5.5839  ZZZ=              0.9726  XYY=             -0.2892
  XXY=             -0.0756  XXZ=              0.7283  XZZ=             -2.0110  YZZ=             -2.9717
  YYZ=              1.5353  XYZ=             -0.9241
 Hexadecapole moment (field-independent basis, Debye-Ang**3):
 XXXX=           -248.3004 YYYY=            -81.3636 ZZZZ=            -42.8663 XXXY=              0.4817
 XXXZ=             -0.5564 YYYX=              7.5675 YYYZ=              2.2109 ZZZX=             -0.9624
 ZZZY=              1.5286 XXYY=            -56.6411 XXZZ=            -49.8548 YYZZ=            -21.6819
 XXYZ=              0.8885 YYXZ=             -1.2112 ZZXY=              3.2691
 N-N= 1.489598055057D+02 E-N=-2.442895883347D+03  KE= 9.001876920088D+02
   1 Symmetry operations used in ECPInt.
 ECPInt:  NShTT=     325 NPrTT=    1493 LenC2=     322 LenP2D=    1210.
 LDataN:  DoStor=T MaxTD1= 5 Len=  102
 Calling FoFJK, ICntrl=  10002127 FMM=F ISym2X=0 I1Cent= 0 IOpClX= 0 NMat=1 NMatS=1 NMatT=0.
 -------------------------------------------------------------------
 Center     Atomic                   Forces (Hartrees/Bohr)
 Number     Number              X              Y              Z
 -------------------------------------------------------------------
      1       15          -0.000536380    0.000004595   -0.000031526
      2        9           0.000245209    0.000282291    0.000053691
      3        1           0.000036987   -0.000142862   -0.000103859
      4       17           0.000254184   -0.000144023    0.000081694
 -------------------------------------------------------------------
 Cartesian Forces:  Max     0.000536380 RMS     0.000215253
 NDeriv=     12 NFrqRd=  0 NDerD0=      0 MskFDP=       0 MskDFD=       0 MskDF0=       0
 Re-enter D2Numr:  atom      1 IXYZ=1 step-up   number 1
 Standard basis: def2SVP (5D, 7F)
    55 basis functions,   106 primitive gaussians,    58 cartesian basis functions
    21 alpha electrons       21 beta electrons
       nuclear repulsion energy       148.9315146304 Hartrees.
 NAtoms=    4 NActive=    4 NUniq=    4 SFac= 1.00D+00 NAtFMM=   60 NAOKFM=F Big=F
 Integral buffers will be    131072 words long.
 Raffenetti 1 integral format.
 Two-electron integral symmetry is turned off.
 One-electron integrals computed using PRISM.
   1 Symmetry operations used in ECPInt.
 ECPInt:  NShTT=     325 NPrTT=    1493 LenC2=     322 LenP2D=    1210.
 LDataN:  DoStor=T MaxTD1= 4 Len=   56
 NBasis=    55 RedAO= T EigKep=  1.68D-02  NBF=    55
 NBsUse=    55 1.00D-06 EigRej= -1.00D+00 NBFU=    55
 Initial guess from the checkpoint file:  "/tmp/webmo-1487/46/Gau-1451.chk"
 B after Tr=    -0.000675    0.000000   -0.000000
         Rot=    1.000000    0.000000   -0.000015   -0.000067 Ang=  -0.01 deg.
 Keep R1 ints in memory in canonical form, NReq=2030168.
 Requested convergence on RMS density matrix=1.00D-08 within 128 cycles.
 Requested convergence on MAX density matrix=1.00D-06.
 Requested convergence on             energy=1.00D-06.
 No special actions if energy rises.
 SCF Done:  E(RHF) =  -899.950981122     A.U. after    8 cycles
            NFock=  8  Conv=0.68D-08     -V/T= 2.0003
 ExpMin= 1.05D-01 ExpMax= 1.04D+04 ExpMxC= 1.57D+03 IAcc=3 IRadAn=         5 AccDes= 0.00D+00
 HarFok:  IExCor=  205 AccDes= 0.00D+00 IRadAn=         5 IDoV=-2 UseB2=F ITyADJ=14
 ICtDFT= 12500011 ScaDFX=  1.000000  1.000000  1.000000  1.000000
 Range of M.O.s used for correlation:    12    55
 NBasis=    55 NAE=    21 NBE=    21 NFC=    11 NFV=     0
 NROrb=     44 NOA=    10 NOB=    10 NVA=    34 NVB=    34
 Semi-Direct transformation.
 ModeAB=           2 MOrb=            10 LenV=     104642533
 LASXX=       347920 LTotXX=      347920 LenRXX=      347920
 LTotAB=      372350 MaxLAS=      752840 LenRXY=      752840
 NonZer=      775720 LenScr=     1744896 LnRSAI=           0
 LnScr1=           0 LExtra=           0 Total=      2845656
 MaxDsk=          -1 SrtSym=           F ITran=            4
 JobTyp=0 Pass  1:  I=   1 to  10.
 (rs|ai) integrals will be sorted in core.
 Spin components of T(2) and E(2):
     alpha-alpha T2 =       0.1669920185D-01 E2=     -0.5555256045D-01
     alpha-beta  T2 =       0.1001483690D+00 E2=     -0.3205506993D+00
     beta-beta   T2 =       0.1669920185D-01 E2=     -0.5555256045D-01
 ANorm=    0.1064681536D+01
 E2 =    -0.4316558202D+00 EUMP2 =    -0.90038263694192D+03
 Keep R2 and R3 ints in memory in canonical form, NReq=3220223.
 CIDS: In Core Option IDoMem=           1.
 Iterations=  50 Convergence= 0.100D-07
 Produce multiple copies of IABC intergrals
 Iteration Nr.   1
 **********************
 DD1Dir will call FoFMem   1 times, MxPair=       110
 NAB=    55 NAA=     0 NBB=     0.
 MP4(R+Q)=  0.60672419D-02
 E3=       -0.22659608D-01        EUMP3=      -0.90040529655D+03
 E4(DQ)=   -0.36337074D-02        UMP4(DQ)=   -0.90040893026D+03
 E4(SDQ)=  -0.74850146D-02        UMP4(SDQ)=  -0.90041278156D+03
 DE(Corr)= -0.44796359     E(Corr)=     -900.39894471    
 NORM(A)=   0.10744318D+01
 Iteration Nr.   2
 **********************
 DD1Dir will call FoFMem   1 times, MxPair=       110
 NAB=    55 NAA=     0 NBB=     0.
 DE(Corr)= -0.45900389     E(CORR)=     -900.40998501     Delta=-1.10D-02
 NORM(A)=   0.10801028D+01
 Iteration Nr.   3
 **********************
 DD1Dir will call FoFMem   1 times, MxPair=       110
 NAB=    55 NAA=     0 NBB=     0.
 DE(Corr)= -0.46004436     E(CORR)=     -900.41102548     Delta=-1.04D-03
 NORM(A)=   0.10816994D+01
 Iteration Nr.   4
 **********************
 DD1Dir will call FoFMem   1 times, MxPair=       110
 NAB=    55 NAA=     0 NBB=     0.
 DE(Corr)= -0.46116767     E(CORR)=     -900.41214879     Delta=-1.12D-03
 NORM(A)=   0.10820795D+01
 Iteration Nr.   5
 **********************
 DD1Dir will call FoFMem   1 times, MxPair=       110
 NAB=    55 NAA=     0 NBB=     0.
 DE(Corr)= -0.46125155     E(CORR)=     -900.41223267     Delta=-8.39D-05
 NORM(A)=   0.10821943D+01
 Iteration Nr.   6
 **********************
 DD1Dir will call FoFMem   1 times, MxPair=       110
 NAB=    55 NAA=     0 NBB=     0.
 DE(Corr)= -0.46126346     E(CORR)=     -900.41224458     Delta=-1.19D-05
 NORM(A)=   0.10822137D+01
 Iteration Nr.   7
 **********************
 DD1Dir will call FoFMem   1 times, MxPair=       110
 NAB=    55 NAA=     0 NBB=     0.
 DE(Corr)= -0.46126453     E(CORR)=     -900.41224565     Delta=-1.07D-06
 NORM(A)=   0.10822161D+01
 Iteration Nr.   8
 **********************
 DD1Dir will call FoFMem   1 times, MxPair=       110
 NAB=    55 NAA=     0 NBB=     0.
 DE(Corr)= -0.46126254     E(CORR)=     -900.41224366     Delta= 1.99D-06
 NORM(A)=   0.10822174D+01
 Iteration Nr.   9
 **********************
 DD1Dir will call FoFMem   1 times, MxPair=       110
 NAB=    55 NAA=     0 NBB=     0.
 DE(Corr)= -0.46126379     E(CORR)=     -900.41224491     Delta=-1.25D-06
 NORM(A)=   0.10822180D+01
 Iteration Nr.  10
 **********************
 DD1Dir will call FoFMem   1 times, MxPair=       110
 NAB=    55 NAA=     0 NBB=     0.
 DE(Corr)= -0.46126377     E(CORR)=     -900.41224490     Delta= 1.30D-08
 NORM(A)=   0.10822184D+01
 Iteration Nr.  11
 **********************
 DD1Dir will call FoFMem   1 times, MxPair=       110
 NAB=    55 NAA=     0 NBB=     0.
 DE(Corr)= -0.46126418     E(CORR)=     -900.41224530     Delta=-4.02D-07
 NORM(A)=   0.10822186D+01
 Iteration Nr.  12
 **********************
 DD1Dir will call FoFMem   1 times, MxPair=       110
 NAB=    55 NAA=     0 NBB=     0.
 DE(Corr)= -0.46126419     E(CORR)=     -900.41224531     Delta=-1.05D-08
 NORM(A)=   0.10822187D+01
 Iteration Nr.  13
 **********************
 DD1Dir will call FoFMem   1 times, MxPair=       110
 NAB=    55 NAA=     0 NBB=     0.
 DE(Corr)= -0.46126423     E(CORR)=     -900.41224536     Delta=-4.68D-08
 NORM(A)=   0.10822188D+01
 Iteration Nr.  14
 **********************
 DD1Dir will call FoFMem   1 times, MxPair=       110
 NAB=    55 NAA=     0 NBB=     0.
 DE(Corr)= -0.46126424     E(CORR)=     -900.41224536     Delta=-3.33D-09
 NORM(A)=   0.10822188D+01
 Wavefunction amplitudes converged. E(Corr)=     -900.41224536    
 Largest amplitude= 5.28D-02

 Z-amplitude iterations

 Iteration Nr.   1
 **********************
 DD1Dir will call FoFMem   1 times, MxPair=       110
 NAB=    55 NAA=     0 NBB=     0.
 DE(Z)= -0.45237745     E(Z)=     -900.40335857     Delta= 8.89D-03
 NORM(A)=   0.10822178D+01
 Iteration Nr.   2
 **********************
 DD1Dir will call FoFMem   1 times, MxPair=       110
 NAB=    55 NAA=     0 NBB=     0.
 DE(Z)= -0.45237706     E(Z)=     -900.40335818     Delta= 3.91D-07
 NORM(A)=   0.10822146D+01
 Iteration Nr.   3
 **********************
 DD1Dir will call FoFMem   1 times, MxPair=       110
 NAB=    55 NAA=     0 NBB=     0.
 DE(Z)= -0.45237610     E(Z)=     -900.40335722     Delta= 9.63D-07
 NORM(A)=   0.10822153D+01
 Iteration Nr.   4
 **********************
 DD1Dir will call FoFMem   1 times, MxPair=       110
 NAB=    55 NAA=     0 NBB=     0.
 DE(Z)= -0.45237630     E(Z)=     -900.40335742     Delta=-2.00D-07
 NORM(A)=   0.10822058D+01
 Iteration Nr.   5
 **********************
 DD1Dir will call FoFMem   1 times, MxPair=       110
 NAB=    55 NAA=     0 NBB=     0.
 DE(Z)= -0.45237318     E(Z)=     -900.40335430     Delta= 3.12D-06
 NORM(A)=   0.10761941D+01
 Iteration Nr.   6
 **********************
 DD1Dir will call FoFMem   1 times, MxPair=       110
 NAB=    55 NAA=     0 NBB=     0.
 DE(Z)= -0.45024676     E(Z)=     -900.40122788     Delta= 2.13D-03
 NORM(A)=   0.10761955D+01
 Iteration Nr.   7
 **********************
 DD1Dir will call FoFMem   1 times, MxPair=       110
 NAB=    55 NAA=     0 NBB=     0.
 DE(Z)= -0.45024791     E(Z)=     -900.40122903     Delta=-1.15D-06
 NORM(A)=   0.10761943D+01
 Iteration Nr.   8
 **********************
 DD1Dir will call FoFMem   1 times, MxPair=       110
 NAB=    55 NAA=     0 NBB=     0.
 DE(Z)= -0.45024797     E(Z)=     -900.40122909     Delta=-5.83D-08
 NORM(A)=   0.10761940D+01
 Iteration Nr.   9
 **********************
 DD1Dir will call FoFMem   1 times, MxPair=       110
 NAB=    55 NAA=     0 NBB=     0.
 DE(Z)= -0.45024736     E(Z)=     -900.40122848     Delta= 6.08D-07
 NORM(A)=   0.10761938D+01
 Iteration Nr.  10
 **********************
 DD1Dir will call FoFMem   1 times, MxPair=       110
 NAB=    55 NAA=     0 NBB=     0.
 DE(Z)= -0.45024743     E(Z)=     -900.40122855     Delta=-6.45D-08
 NORM(A)=   0.10761937D+01
 Iteration Nr.  11
 **********************
 DD1Dir will call FoFMem   1 times, MxPair=       110
 NAB=    55 NAA=     0 NBB=     0.
 DE(Z)= -0.45024734     E(Z)=     -900.40122846     Delta= 9.09D-08
 NORM(A)=   0.10761938D+01
 Iteration Nr.  12
 **********************
 DD1Dir will call FoFMem   1 times, MxPair=       110
 NAB=    55 NAA=     0 NBB=     0.
 DE(Z)= -0.45024735     E(Z)=     -900.40122847     Delta=-1.27D-08
 NORM(A)=   0.10761938D+01
 Iteration Nr.  13
 **********************
 DD1Dir will call FoFMem   1 times, MxPair=       110
 NAB=    55 NAA=     0 NBB=     0.
 DE(Z)= -0.45024736     E(Z)=     -900.40122848     Delta=-1.15D-08
 NORM(A)=   0.10761938D+01
 Iteration Nr.  14
 **********************
 DD1Dir will call FoFMem   1 times, MxPair=       110
 NAB=    55 NAA=     0 NBB=     0.
 DE(Z)= -0.45024736     E(Z)=     -900.40122848     Delta=-4.89D-10
 NORM(A)=   0.10761938D+01
 Z-amplitudes converged.
 Discarding MO integrals.
          IDoAtm=1111
          Differentiating once with respect to electric field.
                with respect to dipole field.
          Differentiating once with respect to nuclear coordinates.
 Keep R1 ints in memory in canonical form, NReq=2031170.
          There are     1 degrees of freedom in the 1st order CPHF.  IDoFFX=0 NUNeed=     1.
 LinEq1:  Iter=  0 NonCon=     1 RMS=4.70D-03 Max=4.82D-02 NDo=     1
 AX will form     1 AO Fock derivatives at one time.
 LinEq1:  Iter=  1 NonCon=     1 RMS=1.29D-03 Max=1.04D-02 NDo=     1
 LinEq1:  Iter=  2 NonCon=     1 RMS=3.76D-04 Max=3.24D-03 NDo=     1
 LinEq1:  Iter=  3 NonCon=     1 RMS=1.10D-04 Max=8.54D-04 NDo=     1
 LinEq1:  Iter=  4 NonCon=     1 RMS=2.82D-05 Max=2.00D-04 NDo=     1
 LinEq1:  Iter=  5 NonCon=     1 RMS=6.91D-06 Max=6.10D-05 NDo=     1
 LinEq1:  Iter=  6 NonCon=     1 RMS=1.83D-06 Max=2.41D-05 NDo=     1
 LinEq1:  Iter=  7 NonCon=     1 RMS=4.66D-07 Max=3.64D-06 NDo=     1
 LinEq1:  Iter=  8 NonCon=     1 RMS=9.21D-08 Max=6.05D-07 NDo=     1
 LinEq1:  Iter=  9 NonCon=     1 RMS=1.86D-08 Max=1.77D-07 NDo=     1
 LinEq1:  Iter= 10 NonCon=     1 RMS=3.13D-09 Max=2.39D-08 NDo=     1
 LinEq1:  Iter= 11 NonCon=     1 RMS=4.57D-10 Max=3.03D-09 NDo=     1
 LinEq1:  Iter= 12 NonCon=     0 RMS=8.59D-11 Max=5.63D-10 NDo=     1
 Linear equations converged to 1.000D-10 1.000D-09 after    12 iterations.
 End of Minotr F.D. properties file   721 does not exist.
 End of Minotr F.D. properties file   722 does not exist.
 End of Minotr F.D. properties file   788 does not exist.

 **********************************************************************

            Population analysis using the CC Density.

 **********************************************************************

 Alpha  occ. eigenvalues -- -104.80328 -80.04321 -26.30421 -10.56762  -8.04232
 Alpha  occ. eigenvalues --   -8.03914  -8.03885  -7.60308  -5.50149  -5.50018
 Alpha  occ. eigenvalues --   -5.49783  -1.58942  -1.12075  -0.85936  -0.70822
 Alpha  occ. eigenvalues --   -0.69291  -0.66945  -0.55311  -0.49561  -0.47868
 Alpha  occ. eigenvalues --   -0.40278
 Alpha virt. eigenvalues --    0.11874   0.13010   0.19354   0.43047   0.49908
 Alpha virt. eigenvalues --    0.63194   0.66453   0.68579   0.71386   0.74076
 Alpha virt. eigenvalues --    0.79552   0.81913   0.92046   1.01952   1.02813
 Alpha virt. eigenvalues --    1.05930   1.06650   1.12591   1.19547   1.22434
 Alpha virt. eigenvalues --    1.25809   1.51016   1.54645   1.56101   1.60145
 Alpha virt. eigenvalues --    1.78590   1.84116   2.11134   2.38679   3.43295
 Alpha virt. eigenvalues --    3.43565   3.50085   3.51954   3.88088
          Condensed to atoms (all electrons):
               1          2          3          4
     1  P   13.658215   0.180210   0.268717   0.183214
     2  F    0.180210   9.255913  -0.014187  -0.015110
     3  H    0.268717  -0.014187   0.803612  -0.022127
     4  Cl   0.183214  -0.015110  -0.022127  17.120825
 Mulliken charges:
               1
     1  P    0.709644
     2  F   -0.406826
     3  H   -0.036015
     4  Cl  -0.266803
 Sum of Mulliken charges =  -0.00000
 Mulliken charges with hydrogens summed into heavy atoms:
               1
     1  P    0.673629
     2  F   -0.406826
     4  Cl  -0.266803
 Electronic spatial extent (au):  <R**2>=            314.3789
 Charge=             -0.0000 electrons
 Dipole moment (field-independent basis, Debye):
    X=             -0.3536    Y=              1.5740    Z=              0.4374  Tot=              1.6715
 Quadrupole moment (field-independent basis, Debye-Ang):
   XX=            -32.2410   YY=            -30.6192   ZZ=            -30.5797
   XY=             -1.6200   XZ=             -0.3979   YZ=              1.1427
 Traceless Quadrupole moment (field-independent basis, Debye-Ang):
   XX=             -1.0944   YY=              0.5275   ZZ=              0.5669
   XY=             -1.6200   XZ=             -0.3979   YZ=              1.1427
 Octapole moment (field-independent basis, Debye-Ang**2):
  XXX=             -3.2564  YYY=             -5.5811  ZZZ=              0.9719  XYY=             -0.2747
  XXY=             -0.0806  XXZ=              0.7315  XZZ=             -1.9938  YZZ=             -2.9708
  YYZ=              1.5341  XYZ=             -0.9265
 Hexadecapole moment (field-independent basis, Debye-Ang**3):
 XXXX=           -248.4485 YYYY=            -81.3518 ZZZZ=            -42.8660 XXXY=              0.5312
 XXXZ=             -0.5685 YYYX=              7.6159 YYYZ=              2.2083 ZZZX=             -0.9711
 ZZZY=              1.5271 XXYY=            -56.6725 XXZZ=            -49.8858 YYZZ=            -21.6801
 XXYZ=              0.8913 YYXZ=             -1.2162 ZZXY=              3.2870
 N-N= 1.489315146304D+02 E-N=-2.442838837673D+03  KE= 9.001871799859D+02
   1 Symmetry operations used in ECPInt.
 ECPInt:  NShTT=     325 NPrTT=    1493 LenC2=     322 LenP2D=    1210.
 LDataN:  DoStor=T MaxTD1= 5 Len=  102
 Calling FoFJK, ICntrl=  10002127 FMM=F ISym2X=0 I1Cent= 0 IOpClX= 0 NMat=1 NMatS=1 NMatT=0.
 -------------------------------------------------------------------
 Center     Atomic                   Forces (Hartrees/Bohr)
 Number     Number              X              Y              Z
 -------------------------------------------------------------------
      1       15           0.000420724    0.000240956   -0.000070529
      2        9          -0.000142970   -0.000195250    0.000133162
      3        1          -0.000044350   -0.000137658   -0.000064759
      4       17          -0.000233403    0.000091953    0.000002126
 -------------------------------------------------------------------
 Cartesian Forces:  Max     0.000420724 RMS     0.000183572
 NDeriv=     12 NFrqRd=  0 NDerD0=      0 MskFDP=       0 MskDFD=       0 MskDF0=       0
 Re-enter D2Numr:  atom      1 IXYZ=1 step-down number 1
 Standard basis: def2SVP (5D, 7F)
    55 basis functions,   106 primitive gaussians,    58 cartesian basis functions
    21 alpha electrons       21 beta electrons
       nuclear repulsion energy       148.9120701497 Hartrees.
 NAtoms=    4 NActive=    4 NUniq=    4 SFac= 1.00D+00 NAtFMM=   60 NAOKFM=F Big=F
 Integral buffers will be    131072 words long.
 Raffenetti 1 integral format.
 Two-electron integral symmetry is turned off.
 One-electron integrals computed using PRISM.
   1 Symmetry operations used in ECPInt.
 ECPInt:  NShTT=     325 NPrTT=    1493 LenC2=     322 LenP2D=    1210.
 LDataN:  DoStor=T MaxTD1= 4 Len=   56
 NBasis=    55 RedAO= T EigKep=  1.68D-02  NBF=    55
 NBsUse=    55 1.00D-06 EigRej= -1.00D+00 NBFU=    55
 Initial guess from the checkpoint file:  "/tmp/webmo-1487/46/Gau-1451.chk"
 B after Tr=    -0.000000    0.000675   -0.000000
         Rot=    1.000000   -0.000061    0.000000    0.000065 Ang=  -0.01 deg.
 Keep R1 ints in memory in canonical form, NReq=2030168.
 Requested convergence on RMS density matrix=1.00D-08 within 128 cycles.
 Requested convergence on MAX density matrix=1.00D-06.
 Requested convergence on             energy=1.00D-06.
 No special actions if energy rises.
 SCF Done:  E(RHF) =  -899.950943948     A.U. after    8 cycles
            NFock=  8  Conv=0.57D-08     -V/T= 2.0003
 ExpMin= 1.05D-01 ExpMax= 1.04D+04 ExpMxC= 1.57D+03 IAcc=3 IRadAn=         5 AccDes= 0.00D+00
 HarFok:  IExCor=  205 AccDes= 0.00D+00 IRadAn=         5 IDoV=-2 UseB2=F ITyADJ=14
 ICtDFT= 12500011 ScaDFX=  1.000000  1.000000  1.000000  1.000000
 Range of M.O.s used for correlation:    12    55
 NBasis=    55 NAE=    21 NBE=    21 NFC=    11 NFV=     0
 NROrb=     44 NOA=    10 NOB=    10 NVA=    34 NVB=    34
 Semi-Direct transformation.
 ModeAB=           2 MOrb=            10 LenV=     104642533
 LASXX=       347920 LTotXX=      347920 LenRXX=      347920
 LTotAB=      372350 MaxLAS=      752840 LenRXY=      752840
 NonZer=      775720 LenScr=     1744896 LnRSAI=           0
 LnScr1=           0 LExtra=           0 Total=      2845656
 MaxDsk=          -1 SrtSym=           F ITran=            4
 JobTyp=0 Pass  1:  I=   1 to  10.
 (rs|ai) integrals will be sorted in core.
 Spin components of T(2) and E(2):
     alpha-alpha T2 =       0.1670312703D-01 E2=     -0.5555702827D-01
     alpha-beta  T2 =       0.1001692428D+00 E2=     -0.3205813185D+00
     beta-beta   T2 =       0.1670312703D-01 E2=     -0.5555702827D-01
 ANorm=    0.1064695025D+01
 E2 =    -0.4316953750D+00 EUMP2 =    -0.90038263932258D+03
 Keep R2 and R3 ints in memory in canonical form, NReq=3220223.
 CIDS: In Core Option IDoMem=           1.
 Iterations=  50 Convergence= 0.100D-07
 Produce multiple copies of IABC intergrals
 Iteration Nr.   1
 **********************
 DD1Dir will call FoFMem   1 times, MxPair=       110
 NAB=    55 NAA=     0 NBB=     0.
 MP4(R+Q)=  0.60687595D-02
 E3=       -0.22652658D-01        EUMP3=      -0.90040529198D+03
 E4(DQ)=   -0.36359125D-02        UMP4(DQ)=   -0.90040892789D+03
 E4(SDQ)=  -0.74912096D-02        UMP4(SDQ)=  -0.90041278319D+03
 DE(Corr)= -0.44799426     E(Corr)=     -900.39893821    
 NORM(A)=   0.10744443D+01
 Iteration Nr.   2
 **********************
 DD1Dir will call FoFMem   1 times, MxPair=       110
 NAB=    55 NAA=     0 NBB=     0.
 DE(Corr)= -0.45904116     E(CORR)=     -900.40998510     Delta=-1.10D-02
 NORM(A)=   0.10801176D+01
 Iteration Nr.   3
 **********************
 DD1Dir will call FoFMem   1 times, MxPair=       110
 NAB=    55 NAA=     0 NBB=     0.
 DE(Corr)= -0.46007991     E(CORR)=     -900.41102385     Delta=-1.04D-03
 NORM(A)=   0.10817162D+01
 Iteration Nr.   4
 **********************
 DD1Dir will call FoFMem   1 times, MxPair=       110
 NAB=    55 NAA=     0 NBB=     0.
 DE(Corr)= -0.46120469     E(CORR)=     -900.41214863     Delta=-1.12D-03
 NORM(A)=   0.10820969D+01
 Iteration Nr.   5
 **********************
 DD1Dir will call FoFMem   1 times, MxPair=       110
 NAB=    55 NAA=     0 NBB=     0.
 DE(Corr)= -0.46128870     E(CORR)=     -900.41223265     Delta=-8.40D-05
 NORM(A)=   0.10822119D+01
 Iteration Nr.   6
 **********************
 DD1Dir will call FoFMem   1 times, MxPair=       110
 NAB=    55 NAA=     0 NBB=     0.
 DE(Corr)= -0.46130063     E(CORR)=     -900.41224457     Delta=-1.19D-05
 NORM(A)=   0.10822315D+01
 Iteration Nr.   7
 **********************
 DD1Dir will call FoFMem   1 times, MxPair=       110
 NAB=    55 NAA=     0 NBB=     0.
 DE(Corr)= -0.46130170     E(CORR)=     -900.41224565     Delta=-1.08D-06
 NORM(A)=   0.10822338D+01
 Iteration Nr.   8
 **********************
 DD1Dir will call FoFMem   1 times, MxPair=       110
 NAB=    55 NAA=     0 NBB=     0.
 DE(Corr)= -0.46129971     E(CORR)=     -900.41224366     Delta= 1.99D-06
 NORM(A)=   0.10822351D+01
 Iteration Nr.   9
 **********************
 DD1Dir will call FoFMem   1 times, MxPair=       110
 NAB=    55 NAA=     0 NBB=     0.
 DE(Corr)= -0.46130096     E(CORR)=     -900.41224491     Delta=-1.25D-06
 NORM(A)=   0.10822357D+01
 Iteration Nr.  10
 **********************
 DD1Dir will call FoFMem   1 times, MxPair=       110
 NAB=    55 NAA=     0 NBB=     0.
 DE(Corr)= -0.46130095     E(CORR)=     -900.41224489     Delta= 1.23D-08
 NORM(A)=   0.10822361D+01
 Iteration Nr.  11
 **********************
 DD1Dir will call FoFMem   1 times, MxPair=       110
 NAB=    55 NAA=     0 NBB=     0.
 DE(Corr)= -0.46130135     E(CORR)=     -900.41224530     Delta=-4.02D-07
 NORM(A)=   0.10822363D+01
 Iteration Nr.  12
 **********************
 DD1Dir will call FoFMem   1 times, MxPair=       110
 NAB=    55 NAA=     0 NBB=     0.
 DE(Corr)= -0.46130136     E(CORR)=     -900.41224531     Delta=-1.07D-08
 NORM(A)=   0.10822364D+01
 Iteration Nr.  13
 **********************
 DD1Dir will call FoFMem   1 times, MxPair=       110
 NAB=    55 NAA=     0 NBB=     0.
 DE(Corr)= -0.46130141     E(CORR)=     -900.41224535     Delta=-4.70D-08
 NORM(A)=   0.10822365D+01
 Iteration Nr.  14
 **********************
 DD1Dir will call FoFMem   1 times, MxPair=       110
 NAB=    55 NAA=     0 NBB=     0.
 DE(Corr)= -0.46130141     E(CORR)=     -900.41224536     Delta=-3.40D-09
 NORM(A)=   0.10822365D+01
 Wavefunction amplitudes converged. E(Corr)=     -900.41224536    
 Largest amplitude= 5.29D-02

 Z-amplitude iterations

 Iteration Nr.   1
 **********************
 DD1Dir will call FoFMem   1 times, MxPair=       110
 NAB=    55 NAA=     0 NBB=     0.
 DE(Z)= -0.45241164     E(Z)=     -900.40335559     Delta= 8.89D-03
 NORM(A)=   0.10822355D+01
 Iteration Nr.   2
 **********************
 DD1Dir will call FoFMem   1 times, MxPair=       110
 NAB=    55 NAA=     0 NBB=     0.
 DE(Z)= -0.45241126     E(Z)=     -900.40335521     Delta= 3.83D-07
 NORM(A)=   0.10822332D+01
 Iteration Nr.   3
 **********************
 DD1Dir will call FoFMem   1 times, MxPair=       110
 NAB=    55 NAA=     0 NBB=     0.
 DE(Z)= -0.45241060     E(Z)=     -900.40335455     Delta= 6.59D-07
 NORM(A)=   0.10822330D+01
 Iteration Nr.   4
 **********************
 DD1Dir will call FoFMem   1 times, MxPair=       110
 NAB=    55 NAA=     0 NBB=     0.
 DE(Z)= -0.45241047     E(Z)=     -900.40335442     Delta= 1.29D-07
 NORM(A)=   0.10822231D+01
 Iteration Nr.   5
 **********************
 DD1Dir will call FoFMem   1 times, MxPair=       110
 NAB=    55 NAA=     0 NBB=     0.
 DE(Z)= -0.45240725     E(Z)=     -900.40335120     Delta= 3.22D-06
 NORM(A)=   0.10762064D+01
 Iteration Nr.   6
 **********************
 DD1Dir will call FoFMem   1 times, MxPair=       110
 NAB=    55 NAA=     0 NBB=     0.
 DE(Z)= -0.45027937     E(Z)=     -900.40122332     Delta= 2.13D-03
 NORM(A)=   0.10762083D+01
 Iteration Nr.   7
 **********************
 DD1Dir will call FoFMem   1 times, MxPair=       110
 NAB=    55 NAA=     0 NBB=     0.
 DE(Z)= -0.45028052     E(Z)=     -900.40122447     Delta=-1.15D-06
 NORM(A)=   0.10762069D+01
 Iteration Nr.   8
 **********************
 DD1Dir will call FoFMem   1 times, MxPair=       110
 NAB=    55 NAA=     0 NBB=     0.
 DE(Z)= -0.45028062     E(Z)=     -900.40122457     Delta=-1.02D-07
 NORM(A)=   0.10762065D+01
 Iteration Nr.   9
 **********************
 DD1Dir will call FoFMem   1 times, MxPair=       110
 NAB=    55 NAA=     0 NBB=     0.
 DE(Z)= -0.45027994     E(Z)=     -900.40122389     Delta= 6.76D-07
 NORM(A)=   0.10762062D+01
 Iteration Nr.  10
 **********************
 DD1Dir will call FoFMem   1 times, MxPair=       110
 NAB=    55 NAA=     0 NBB=     0.
 DE(Z)= -0.45028000     E(Z)=     -900.40122394     Delta=-5.22D-08
 NORM(A)=   0.10762061D+01
 Iteration Nr.  11
 **********************
 DD1Dir will call FoFMem   1 times, MxPair=       110
 NAB=    55 NAA=     0 NBB=     0.
 DE(Z)= -0.45027990     E(Z)=     -900.40122385     Delta= 9.73D-08
 NORM(A)=   0.10762061D+01
 Iteration Nr.  12
 **********************
 DD1Dir will call FoFMem   1 times, MxPair=       110
 NAB=    55 NAA=     0 NBB=     0.
 DE(Z)= -0.45027991     E(Z)=     -900.40122386     Delta=-1.41D-08
 NORM(A)=   0.10762062D+01
 Iteration Nr.  13
 **********************
 DD1Dir will call FoFMem   1 times, MxPair=       110
 NAB=    55 NAA=     0 NBB=     0.
 DE(Z)= -0.45027992     E(Z)=     -900.40122387     Delta=-1.25D-08
 NORM(A)=   0.10762062D+01
 Iteration Nr.  14
 **********************
 DD1Dir will call FoFMem   1 times, MxPair=       110
 NAB=    55 NAA=     0 NBB=     0.
 DE(Z)= -0.45027993     E(Z)=     -900.40122387     Delta=-1.52D-09
 NORM(A)=   0.10762062D+01
 Z-amplitudes converged.
 Discarding MO integrals.
          IDoAtm=1111
          Differentiating once with respect to electric field.
                with respect to dipole field.
          Differentiating once with respect to nuclear coordinates.
 Keep R1 ints in memory in canonical form, NReq=2031170.
          There are     1 degrees of freedom in the 1st order CPHF.  IDoFFX=0 NUNeed=     1.
 LinEq1:  Iter=  0 NonCon=     1 RMS=4.71D-03 Max=4.79D-02 NDo=     1
 AX will form     1 AO Fock derivatives at one time.
 LinEq1:  Iter=  1 NonCon=     1 RMS=1.29D-03 Max=1.04D-02 NDo=     1
 LinEq1:  Iter=  2 NonCon=     1 RMS=3.77D-04 Max=3.24D-03 NDo=     1
 LinEq1:  Iter=  3 NonCon=     1 RMS=1.10D-04 Max=8.52D-04 NDo=     1
 LinEq1:  Iter=  4 NonCon=     1 RMS=2.82D-05 Max=2.00D-04 NDo=     1
 LinEq1:  Iter=  5 NonCon=     1 RMS=6.92D-06 Max=6.12D-05 NDo=     1
 LinEq1:  Iter=  6 NonCon=     1 RMS=1.83D-06 Max=2.43D-05 NDo=     1
 LinEq1:  Iter=  7 NonCon=     1 RMS=4.67D-07 Max=3.63D-06 NDo=     1
 LinEq1:  Iter=  8 NonCon=     1 RMS=9.22D-08 Max=5.99D-07 NDo=     1
 LinEq1:  Iter=  9 NonCon=     1 RMS=1.86D-08 Max=1.75D-07 NDo=     1
 LinEq1:  Iter= 10 NonCon=     1 RMS=3.13D-09 Max=2.38D-08 NDo=     1
 LinEq1:  Iter= 11 NonCon=     1 RMS=4.57D-10 Max=3.06D-09 NDo=     1
 LinEq1:  Iter= 12 NonCon=     0 RMS=8.58D-11 Max=5.65D-10 NDo=     1
 Linear equations converged to 1.000D-10 1.000D-09 after    12 iterations.
 End of Minotr F.D. properties file   721 does not exist.
 End of Minotr F.D. properties file   722 does not exist.
 End of Minotr F.D. properties file   788 does not exist.

 **********************************************************************

            Population analysis using the CC Density.

 **********************************************************************

 Alpha  occ. eigenvalues -- -104.80342 -80.04324 -26.30381 -10.56777  -8.04247
 Alpha  occ. eigenvalues --   -8.03928  -8.03899  -7.60311  -5.50151  -5.50020
 Alpha  occ. eigenvalues --   -5.49786  -1.58866  -1.12097  -0.85915  -0.70770
 Alpha  occ. eigenvalues --   -0.69237  -0.66909  -0.55328  -0.49577  -0.47880
 Alpha  occ. eigenvalues --   -0.40289
 Alpha virt. eigenvalues --    0.11865   0.12998   0.19346   0.43042   0.49904
 Alpha virt. eigenvalues --    0.63178   0.66440   0.68555   0.71369   0.74056
 Alpha virt. eigenvalues --    0.79525   0.81914   0.92048   1.01934   1.02799
 Alpha virt. eigenvalues --    1.05921   1.06642   1.12566   1.19557   1.22436
 Alpha virt. eigenvalues --    1.25815   1.51018   1.54665   1.56121   1.60161
 Alpha virt. eigenvalues --    1.78612   1.84123   2.11175   2.38693   3.43346
 Alpha virt. eigenvalues --    3.43614   3.50092   3.51957   3.87936
          Condensed to atoms (all electrons):
               1          2          3          4
     1  P   13.657835   0.180045   0.268900   0.183306
     2  F    0.180045   9.256819  -0.014191  -0.015118
     3  H    0.268900  -0.014191   0.803309  -0.022122
     4  Cl   0.183306  -0.015118  -0.022122  17.120398
 Mulliken charges:
               1
     1  P    0.709913
     2  F   -0.407554
     3  H   -0.035895
     4  Cl  -0.266464
 Sum of Mulliken charges =  -0.00000
 Mulliken charges with hydrogens summed into heavy atoms:
               1
     1  P    0.674018
     2  F   -0.407554
     4  Cl  -0.266464
 Electronic spatial extent (au):  <R**2>=            314.3808
 Charge=              0.0000 electrons
 Dipole moment (field-independent basis, Debye):
    X=             -0.3450    Y=              1.5799    Z=              0.4374  Tot=              1.6752
 Quadrupole moment (field-independent basis, Debye-Ang):
   XX=            -32.2466   YY=            -30.6170   ZZ=            -30.5768
   XY=             -1.6269   XZ=             -0.3971   YZ=              1.1434
 Traceless Quadrupole moment (field-independent basis, Debye-Ang):
   XX=             -1.0998   YY=              0.5298   ZZ=              0.5700
   XY=             -1.6269   XZ=             -0.3971   YZ=              1.1434
 Octapole moment (field-independent basis, Debye-Ang**2):
  XXX=             -3.2663  YYY=             -5.6094  ZZZ=              0.9737  XYY=             -0.2816
  XXY=             -0.0851  XXZ=              0.7303  XZZ=             -2.0042  YZZ=             -2.9791
  YYZ=              1.5369  XYZ=             -0.9256
 Hexadecapole moment (field-independent basis, Debye-Ang**3):
 XXXX=           -248.3953 YYYY=            -81.4340 ZZZZ=            -42.8531 XXXY=              0.5104
 XXXZ=             -0.5617 YYYX=              7.6061 YYYZ=              2.2182 ZZZX=             -0.9673
 ZZZY=              1.5341 XXYY=            -56.6687 XXZZ=            -49.8694 YYZZ=            -21.6932
 XXYZ=              0.8915 YYXZ=             -1.2151 ZZXY=              3.2817
 N-N= 1.489120701497D+02 E-N=-2.442800910900D+03  KE= 9.001857781682D+02
   1 Symmetry operations used in ECPInt.
 ECPInt:  NShTT=     325 NPrTT=    1493 LenC2=     322 LenP2D=    1210.
 LDataN:  DoStor=T MaxTD1= 5 Len=  102
 Calling FoFJK, ICntrl=  10002127 FMM=F ISym2X=0 I1Cent= 0 IOpClX= 0 NMat=1 NMatS=1 NMatT=0.
 -------------------------------------------------------------------
 Center     Atomic                   Forces (Hartrees/Bohr)
 Number     Number              X              Y              Z
 -------------------------------------------------------------------
      1       15          -0.000174873   -0.000486220   -0.000033011
      2        9           0.000280294    0.000497684    0.000014911
      3        1          -0.000007230   -0.000079809    0.000002063
      4       17          -0.000098192    0.000068344    0.000016037
 -------------------------------------------------------------------
 Cartesian Forces:  Max     0.000497684 RMS     0.000226486
 NDeriv=     12 NFrqRd=  0 NDerD0=      0 MskFDP=       0 MskDFD=       0 MskDF0=       0
 Re-enter D2Numr:  atom      1 IXYZ=2 step-up   number 1
 Standard basis: def2SVP (5D, 7F)
    55 basis functions,   106 primitive gaussians,    58 cartesian basis functions
    21 alpha electrons       21 beta electrons
       nuclear repulsion energy       148.9792376949 Hartrees.
 NAtoms=    4 NActive=    4 NUniq=    4 SFac= 1.00D+00 NAtFMM=   60 NAOKFM=F Big=F
 Integral buffers will be    131072 words long.
 Raffenetti 1 integral format.
 Two-electron integral symmetry is turned off.
 One-electron integrals computed using PRISM.
   1 Symmetry operations used in ECPInt.
 ECPInt:  NShTT=     325 NPrTT=    1493 LenC2=     322 LenP2D=    1210.
 LDataN:  DoStor=T MaxTD1= 4 Len=   56
 NBasis=    55 RedAO= T EigKep=  1.68D-02  NBF=    55
 NBsUse=    55 1.00D-06 EigRej= -1.00D+00 NBFU=    55
 Initial guess from the checkpoint file:  "/tmp/webmo-1487/46/Gau-1451.chk"
 B after Tr=     0.000000   -0.000675    0.000000
         Rot=    1.000000    0.000061    0.000000   -0.000065 Ang=   0.01 deg.
 Keep R1 ints in memory in canonical form, NReq=2030168.
 Requested convergence on RMS density matrix=1.00D-08 within 128 cycles.
 Requested convergence on MAX density matrix=1.00D-06.
 Requested convergence on             energy=1.00D-06.
 No special actions if energy rises.
 SCF Done:  E(RHF) =  -899.950990258     A.U. after    8 cycles
            NFock=  8  Conv=0.57D-08     -V/T= 2.0002
 ExpMin= 1.05D-01 ExpMax= 1.04D+04 ExpMxC= 1.57D+03 IAcc=3 IRadAn=         5 AccDes= 0.00D+00
 HarFok:  IExCor=  205 AccDes= 0.00D+00 IRadAn=         5 IDoV=-2 UseB2=F ITyADJ=14
 ICtDFT= 12500011 ScaDFX=  1.000000  1.000000  1.000000  1.000000
 Range of M.O.s used for correlation:    12    55
 NBasis=    55 NAE=    21 NBE=    21 NFC=    11 NFV=     0
 NROrb=     44 NOA=    10 NOB=    10 NVA=    34 NVB=    34
 Semi-Direct transformation.
 ModeAB=           2 MOrb=            10 LenV=     104642533
 LASXX=       347920 LTotXX=      347920 LenRXX=      347920
 LTotAB=      372350 MaxLAS=      752840 LenRXY=      752840
 NonZer=      775720 LenScr=     1744896 LnRSAI=           0
 LnScr1=           0 LExtra=           0 Total=      2845656
 MaxDsk=          -1 SrtSym=           F ITran=            4
 JobTyp=0 Pass  1:  I=   1 to  10.
 (rs|ai) integrals will be sorted in core.
 Spin components of T(2) and E(2):
     alpha-alpha T2 =       0.1669982310D-01 E2=     -0.5555649077D-01
     alpha-beta  T2 =       0.1001324893D+00 E2=     -0.3205412773D+00
     beta-beta   T2 =       0.1669982310D-01 E2=     -0.5555649077D-01
 ANorm=    0.1064674662D+01
 E2 =    -0.4316542588D+00 EUMP2 =    -0.90038264451664D+03
 Keep R2 and R3 ints in memory in canonical form, NReq=3220223.
 CIDS: In Core Option IDoMem=           1.
 Iterations=  50 Convergence= 0.100D-07
 Produce multiple copies of IABC intergrals
 Iteration Nr.   1
 **********************
 DD1Dir will call FoFMem   1 times, MxPair=       110
 NAB=    55 NAA=     0 NBB=     0.
 MP4(R+Q)=  0.60656371D-02
 E3=       -0.22655880D-01        EUMP3=      -0.90040530040D+03
 E4(DQ)=   -0.36320359D-02        UMP4(DQ)=   -0.90040893243D+03
 E4(SDQ)=  -0.74805271D-02        UMP4(SDQ)=  -0.90041278092D+03
 DE(Corr)= -0.44796017     E(Corr)=     -900.39895043    
 NORM(A)=   0.10744204D+01
 Iteration Nr.   2
 **********************
 DD1Dir will call FoFMem   1 times, MxPair=       110
 NAB=    55 NAA=     0 NBB=     0.
 DE(Corr)= -0.45899539     E(CORR)=     -900.40998565     Delta=-1.10D-02
 NORM(A)=   0.10800874D+01
 Iteration Nr.   3
 **********************
 DD1Dir will call FoFMem   1 times, MxPair=       110
 NAB=    55 NAA=     0 NBB=     0.
 DE(Corr)= -0.46003606     E(CORR)=     -900.41102632     Delta=-1.04D-03
 NORM(A)=   0.10816818D+01
 Iteration Nr.   4
 **********************
 DD1Dir will call FoFMem   1 times, MxPair=       110
 NAB=    55 NAA=     0 NBB=     0.
 DE(Corr)= -0.46115823     E(CORR)=     -900.41214848     Delta=-1.12D-03
 NORM(A)=   0.10820611D+01
 Iteration Nr.   5
 **********************
 DD1Dir will call FoFMem   1 times, MxPair=       110
 NAB=    55 NAA=     0 NBB=     0.
 DE(Corr)= -0.46124197     E(CORR)=     -900.41223223     Delta=-8.37D-05
 NORM(A)=   0.10821756D+01
 Iteration Nr.   6
 **********************
 DD1Dir will call FoFMem   1 times, MxPair=       110
 NAB=    55 NAA=     0 NBB=     0.
 DE(Corr)= -0.46125386     E(CORR)=     -900.41224412     Delta=-1.19D-05
 NORM(A)=   0.10821950D+01
 Iteration Nr.   7
 **********************
 DD1Dir will call FoFMem   1 times, MxPair=       110
 NAB=    55 NAA=     0 NBB=     0.
 DE(Corr)= -0.46125493     E(CORR)=     -900.41224518     Delta=-1.07D-06
 NORM(A)=   0.10821973D+01
 Iteration Nr.   8
 **********************
 DD1Dir will call FoFMem   1 times, MxPair=       110
 NAB=    55 NAA=     0 NBB=     0.
 DE(Corr)= -0.46125294     E(CORR)=     -900.41224320     Delta= 1.99D-06
 NORM(A)=   0.10821986D+01
 Iteration Nr.   9
 **********************
 DD1Dir will call FoFMem   1 times, MxPair=       110
 NAB=    55 NAA=     0 NBB=     0.
 DE(Corr)= -0.46125419     E(CORR)=     -900.41224445     Delta=-1.25D-06
 NORM(A)=   0.10821992D+01
 Iteration Nr.  10
 **********************
 DD1Dir will call FoFMem   1 times, MxPair=       110
 NAB=    55 NAA=     0 NBB=     0.
 DE(Corr)= -0.46125418     E(CORR)=     -900.41224443     Delta= 1.28D-08
 NORM(A)=   0.10821996D+01
 Iteration Nr.  11
 **********************
 DD1Dir will call FoFMem   1 times, MxPair=       110
 NAB=    55 NAA=     0 NBB=     0.
 DE(Corr)= -0.46125458     E(CORR)=     -900.41224483     Delta=-4.01D-07
 NORM(A)=   0.10821998D+01
 Iteration Nr.  12
 **********************
 DD1Dir will call FoFMem   1 times, MxPair=       110
 NAB=    55 NAA=     0 NBB=     0.
 DE(Corr)= -0.46125459     E(CORR)=     -900.41224484     Delta=-1.05D-08
 NORM(A)=   0.10821999D+01
 Iteration Nr.  13
 **********************
 DD1Dir will call FoFMem   1 times, MxPair=       110
 NAB=    55 NAA=     0 NBB=     0.
 DE(Corr)= -0.46125463     E(CORR)=     -900.41224489     Delta=-4.66D-08
 NORM(A)=   0.10822000D+01
 Iteration Nr.  14
 **********************
 DD1Dir will call FoFMem   1 times, MxPair=       110
 NAB=    55 NAA=     0 NBB=     0.
 DE(Corr)= -0.46125464     E(CORR)=     -900.41224489     Delta=-3.32D-09
 NORM(A)=   0.10822000D+01
 Wavefunction amplitudes converged. E(Corr)=     -900.41224489    
 Largest amplitude= 5.30D-02

 Z-amplitude iterations

 Iteration Nr.   1
 **********************
 DD1Dir will call FoFMem   1 times, MxPair=       110
 NAB=    55 NAA=     0 NBB=     0.
[...]
 NAB=    55 NAA=     0 NBB=     0.
 DE(Z)= -0.45026054     E(Z)=     -900.40122925     Delta= 6.38D-07
 NORM(A)=   0.10761927D+01
 Iteration Nr.  10
 **********************
 DD1Dir will call FoFMem   1 times, MxPair=       110
 NAB=    55 NAA=     0 NBB=     0.
 DE(Z)= -0.45026060     E(Z)=     -900.40122930     Delta=-5.53D-08
 NORM(A)=   0.10761927D+01
 Iteration Nr.  11
 **********************
 DD1Dir will call FoFMem   1 times, MxPair=       110
 NAB=    55 NAA=     0 NBB=     0.
 DE(Z)= -0.45026051     E(Z)=     -900.40122921     Delta= 9.47D-08
 NORM(A)=   0.10761927D+01
 Iteration Nr.  12
 **********************
 DD1Dir will call FoFMem   1 times, MxPair=       110
 NAB=    55 NAA=     0 NBB=     0.
 DE(Z)= -0.45026052     E(Z)=     -900.40122922     Delta=-1.42D-08
 NORM(A)=   0.10761927D+01
 Iteration Nr.  13
 **********************
 DD1Dir will call FoFMem   1 times, MxPair=       110
 NAB=    55 NAA=     0 NBB=     0.
 DE(Z)= -0.45026053     E(Z)=     -900.40122924     Delta=-1.22D-08
 NORM(A)=   0.10761927D+01
 Iteration Nr.  14
 **********************
 DD1Dir will call FoFMem   1 times, MxPair=       110
 NAB=    55 NAA=     0 NBB=     0.
 DE(Z)= -0.45026053     E(Z)=     -900.40122924     Delta=-1.18D-09
 NORM(A)=   0.10761927D+01
 Z-amplitudes converged.
 Discarding MO integrals.
          IDoAtm=1111
          Differentiating once with respect to electric field.
                with respect to dipole field.
          Differentiating once with respect to nuclear coordinates.
 Keep R1 ints in memory in canonical form, NReq=2031170.
          There are     1 degrees of freedom in the 1st order CPHF.  IDoFFX=0 NUNeed=     1.
 LinEq1:  Iter=  0 NonCon=     1 RMS=4.70D-03 Max=4.79D-02 NDo=     1
 AX will form     1 AO Fock derivatives at one time.
 LinEq1:  Iter=  1 NonCon=     1 RMS=1.29D-03 Max=1.04D-02 NDo=     1
 LinEq1:  Iter=  2 NonCon=     1 RMS=3.76D-04 Max=3.24D-03 NDo=     1
 LinEq1:  Iter=  3 NonCon=     1 RMS=1.10D-04 Max=8.53D-04 NDo=     1
 LinEq1:  Iter=  4 NonCon=     1 RMS=2.82D-05 Max=2.00D-04 NDo=     1
 LinEq1:  Iter=  5 NonCon=     1 RMS=6.91D-06 Max=6.13D-05 NDo=     1
 LinEq1:  Iter=  6 NonCon=     1 RMS=1.83D-06 Max=2.43D-05 NDo=     1
 LinEq1:  Iter=  7 NonCon=     1 RMS=4.66D-07 Max=3.64D-06 NDo=     1
 LinEq1:  Iter=  8 NonCon=     1 RMS=9.21D-08 Max=5.97D-07 NDo=     1
 LinEq1:  Iter=  9 NonCon=     1 RMS=1.86D-08 Max=1.74D-07 NDo=     1
 LinEq1:  Iter= 10 NonCon=     1 RMS=3.12D-09 Max=2.38D-08 NDo=     1
 LinEq1:  Iter= 11 NonCon=     1 RMS=4.57D-10 Max=3.05D-09 NDo=     1
 LinEq1:  Iter= 12 NonCon=     0 RMS=8.59D-11 Max=5.65D-10 NDo=     1
 Linear equations converged to 1.000D-10 1.000D-09 after    12 iterations.
 End of Minotr F.D. properties file   721 does not exist.
 End of Minotr F.D. properties file   722 does not exist.
 End of Minotr F.D. properties file   788 does not exist.

 **********************************************************************

            Population analysis using the CC Density.

 **********************************************************************

 Alpha  occ. eigenvalues -- -104.80344 -80.04314 -26.30401 -10.56780  -8.04250
 Alpha  occ. eigenvalues --   -8.03931  -8.03902  -7.60302  -5.50143  -5.50012
 Alpha  occ. eigenvalues --   -5.49777  -1.58908  -1.12107  -0.85922  -0.70798
 Alpha  occ. eigenvalues --   -0.69267  -0.66931  -0.55332  -0.49581  -0.47886
 Alpha  occ. eigenvalues --   -0.40271
 Alpha virt. eigenvalues --    0.11892   0.13016   0.19352   0.43035   0.49906
 Alpha virt. eigenvalues --    0.63175   0.66446   0.68561   0.71383   0.74078
 Alpha virt. eigenvalues --    0.79549   0.81918   0.92052   1.01929   1.02795
 Alpha virt. eigenvalues --    1.05922   1.06643   1.12583   1.19575   1.22445
 Alpha virt. eigenvalues --    1.25814   1.51021   1.54656   1.56116   1.60163
 Alpha virt. eigenvalues --    1.78600   1.84129   2.11146   2.38675   3.43318
 Alpha virt. eigenvalues --    3.43588   3.50092   3.51957   3.88031
          Condensed to atoms (all electrons):
               1          2          3          4
     1  P   13.658430   0.180126   0.268686   0.183180
     2  F    0.180126   9.256317  -0.014195  -0.015104
     3  H    0.268686  -0.014195   0.803650  -0.022103
     4  Cl   0.183180  -0.015104  -0.022103  17.120426
 Mulliken charges:
               1
     1  P    0.709579
     2  F   -0.407143
     3  H   -0.036037
     4  Cl  -0.266398
 Sum of Mulliken charges =  -0.00000
 Mulliken charges with hydrogens summed into heavy atoms:
               1
     1  P    0.673542
     2  F   -0.407143
     4  Cl  -0.266398
 Electronic spatial extent (au):  <R**2>=            314.3177
 Charge=             -0.0000 electrons
 Dipole moment (field-independent basis, Debye):
    X=             -0.3450    Y=              1.5735    Z=              0.4385  Tot=              1.6695
 Quadrupole moment (field-independent basis, Debye-Ang):
   XX=            -32.2430   YY=            -30.6205   ZZ=            -30.5794
   XY=             -1.6207   XZ=             -0.3976   YZ=              1.1437
 Traceless Quadrupole moment (field-independent basis, Debye-Ang):
   XX=             -1.0954   YY=              0.5271   ZZ=              0.5682
   XY=             -1.6207   XZ=             -0.3976   YZ=              1.1437
 Octapole moment (field-independent basis, Debye-Ang**2):
  XXX=             -3.2672  YYY=             -5.5838  ZZZ=              1.0099  XYY=             -0.2808
  XXY=             -0.0791  XXZ=              0.7423  XZZ=             -2.0022  YZZ=             -2.9714
  YYZ=              1.5478  XYZ=             -0.9254
 Hexadecapole moment (field-independent basis, Debye-Ang**3):
 XXXX=           -248.3728 YYYY=            -81.3602 ZZZZ=            -42.8655 XXXY=              0.5074
 XXXZ=             -0.5193 YYYX=              7.5931 YYYZ=              2.2041 ZZZX=             -0.9166
 ZZZY=              1.5209 XXYY=            -56.6576 XXZZ=            -49.8703 YYZZ=            -21.6810
 XXYZ=              0.8907 YYXZ=             -1.1986 ZZXY=              3.2783
 N-N= 1.489468000759D+02 E-N=-2.442869445921D+03  KE= 9.001874584179D+02
   1 Symmetry operations used in ECPInt.
 ECPInt:  NShTT=     325 NPrTT=    1493 LenC2=     322 LenP2D=    1210.
 LDataN:  DoStor=T MaxTD1= 5 Len=  102
 Calling FoFJK, ICntrl=  10002127 FMM=F ISym2X=0 I1Cent= 0 IOpClX= 0 NMat=1 NMatS=1 NMatT=0.
 -------------------------------------------------------------------
 Center     Atomic                   Forces (Hartrees/Bohr)
 Number     Number              X              Y              Z
 -------------------------------------------------------------------
      1       15          -0.000097058    0.000147865   -0.000095267
      2        9           0.000056593    0.000039023    0.000100627
      3        1           0.000028000   -0.000159396   -0.000074302
      4       17           0.000012465   -0.000027493    0.000068942
 -------------------------------------------------------------------
 Cartesian Forces:  Max     0.000159396 RMS     0.000087839
 NDeriv=     12 NFrqRd=  0 NDerD0=      0 MskFDP=       0 MskDFD=       0 MskDF0=       0
 Re-enter D2Numr:  atom      4 IXYZ=3 step-down number 1
 Maximum difference in off-diagonal FC elements:
 I=  4 J=  3 Difference=    1.0218103056D-05
 Max difference between analytic and numerical forces:
 I=  9 Difference=    6.9798387075D-07
 Full mass-weighted force constant matrix:
 Low frequencies ---   -2.7620   -0.2337   -0.0311    0.4914    5.7682   10.6050
 Low frequencies ---  270.7009  537.2492  860.6667
 Diagonal vibrational polarizability:
       10.1112219       5.5712226       1.3597547
 Harmonic frequencies (cm**-1), IR intensities (KM/Mole), Raman scattering
 activities (A**4/AMU), depolarization ratios for plane and unpolarized
 incident light, reduced masses (AMU), force constants (mDyne/A),
 and normal coordinates:
                      1                      2                      3
                      A                      A                      A
 Frequencies --    270.7009               537.2492               860.6667
 Red. masses --     19.3304                26.2386                17.8776
 Frc consts  --      0.8346                 4.4621                 7.8024
 IR Inten    --      4.3817                90.6364               136.1020
  Atom  AN      X      Y      Z        X      Y      Z        X      Y      Z
     1  15    -0.03   0.30  -0.02     0.60  -0.32   0.04    -0.25  -0.39   0.03
     2   9     0.73  -0.18   0.02    -0.07   0.07  -0.01     0.41   0.64  -0.06
     3   1    -0.15   0.40  -0.04     0.37  -0.24   0.00     0.33  -0.31   0.05
     4  17    -0.36  -0.18   0.01    -0.51   0.25  -0.03    -0.01   0.01   0.01
                      4                      5                      6
                      A                      A                      A
 Frequencies --    918.6973              1004.5057              2424.8715
 Red. masses --      1.0815                 1.1041                 1.0408
 Frc consts  --      0.5378                 0.6564                 3.6058
 IR Inten    --     24.8949                26.7716               115.8387
  Atom  AN      X      Y      Z        X      Y      Z        X      Y      Z
     1  15    -0.02   0.02  -0.03    -0.01  -0.02   0.04     0.00  -0.01  -0.03
     2   9    -0.00  -0.02   0.01    -0.01  -0.02  -0.05    -0.00  -0.00   0.00
     3   1     0.89  -0.43   0.12     0.48   0.86  -0.17    -0.04   0.24   0.97
     4  17    -0.01   0.00   0.02     0.00   0.00  -0.00     0.00   0.00   0.00

 -------------------
 - Thermochemistry -
 -------------------
 Temperature   298.150 Kelvin.  Pressure   1.00000 Atm.
 Atom     1 has atomic number 15 and mass  30.97376
 Atom     2 has atomic number  9 and mass  18.99840
 Atom     3 has atomic number  1 and mass   1.00783
 Atom     4 has atomic number 17 and mass  34.96885
 Molecular mass:    85.94884 amu.
 Principal axes and moments of inertia in atomic units:
                           1         2         3
     Eigenvalues --    92.16958 412.10079 490.68916
           X            0.99989  -0.01229  -0.00823
           Y            0.01276   0.99810   0.06020
           Z            0.00747  -0.06030   0.99815
 This molecule is an asymmetric top.
 Rotational symmetry number  1.
 Rotational temperatures (Kelvin)      0.93972     0.21018     0.17651
 Rotational constants (GHZ):          19.58066     4.37937     3.67797
 Zero-point vibrational energy      35987.8 (Joules/Mol)
                                    8.60129 (Kcal/Mol)
 Warning -- explicit consideration of   2 degrees of freedom as
           vibrations may cause significant error
 Vibrational temperatures:    389.48   772.98  1238.31  1321.80  1445.26
          (Kelvin)           3488.85
 
 Zero-point correction=                           0.013707 (Hartree/Particle)
 Thermal correction to Energy=                    0.017345
 Thermal correction to Enthalpy=                  0.018289
 Thermal correction to Gibbs Free Energy=        -0.013189
 Sum of electronic and zero-point Energies=           -900.398539
 Sum of electronic and thermal Energies=              -900.394901
 Sum of electronic and thermal Enthalpies=            -900.393957
 Sum of electronic and thermal Free Energies=         -900.425435
 
                     E (Thermal)             CV                S
                      KCal/Mol        Cal/Mol-Kelvin    Cal/Mol-Kelvin
 Total                   10.884             10.262             66.251
 Electronic               0.000              0.000              0.000
 Translational            0.889              2.981             39.267
 Rotational               0.889              2.981             24.436
 Vibrational              9.107              4.300              2.548
 Vibration     1          0.674              1.727              1.592
 Vibration     2          0.892              1.168              0.571
                       Q            Log10(Q)             Ln(Q)
 Total Bot       0.116546D+07          6.066498         13.968628
 Total V=0       0.235120D+13         12.371289         28.485946
 Vib (Bot)       0.761447D-06         -6.118360        -14.088045
 Vib (Bot)    1  0.713674D+00         -0.146500         -0.337329
 Vib (Bot)    2  0.295666D+00         -0.529198         -1.218524
 Vib (V=0)       0.153614D+01          0.186431          0.429273
 Vib (V=0)    1  0.137140D+01          0.137163          0.315829
 Vib (V=0)    2  0.108088D+01          0.033776          0.077773
 Electronic      0.100000D+01          0.000000          0.000000
 Translational   0.313194D+08          7.495814         17.259749
 Rotational      0.488702D+05          4.689044         10.796924
 ***** Axes restored to original set *****
 -------------------------------------------------------------------
 Center     Atomic                   Forces (Hartrees/Bohr)
 Number     Number              X              Y              Z
 -------------------------------------------------------------------
      1       15          -0.000022730    0.000121198   -0.000074711
      2        9           0.000093461   -0.000036638   -0.000056538
      3        1          -0.000106208   -0.000055161    0.000111557
      4       17           0.000035477   -0.000029399    0.000019692
 -------------------------------------------------------------------
 Cartesian Forces:  Max     0.000121198 RMS     0.000072652
 -----------------------------------------------------------------------------------------------
                       Internal Coordinate Forces (Hartree/Bohr or radian)
  Cent   Atom   N1       Length/X         N2         Alpha/Y        N3         Beta/Z          J
 -----------------------------------------------------------------------------------------------
      1  P 
      2  F        1  -0.000057(     1)
      3  H        1  -0.000117(     2)      2  -0.000268(     4)
      4  Cl       1   0.000021(     3)      2  -0.000094(     5)      3  -0.000148(     6)     0
 -----------------------------------------------------------------------------------------------
 Internal  Forces:  Max     0.000268388 RMS     0.000141456

 GradGradGradGradGradGradGradGradGradGradGradGradGradGradGradGradGradGrad
 Berny optimization.
 Search for a local minimum.
 Step number   1 out of a maximum of    2
 All quantities printed in internal units (Hartrees-Bohrs-Radians)
 Second derivative matrix not updated -- analytic derivatives used.
 The second derivative matrix:
                          B1        B2        B3        A1        A2
           B1           0.33685
           B2           0.00499   0.21695
           B3           0.01597   0.00103   0.17929
           A1           0.03581  -0.00020  -0.00507   0.25416
           A2           0.01533   0.00489   0.00972   0.02491   0.26076
           D1          -0.00151  -0.00638   0.03002  -0.00472   0.00273
                          D1
           D1           0.21553
 ITU=  0
     Eigenvalues ---    0.16010   0.21178   0.22568   0.24168   0.26689
     Eigenvalues ---    0.35743
 Angle between quadratic step and forces=  13.03 degrees.
 Linear search not attempted -- first point.
 Variable       Old X    -DE/DX   Delta X   Delta X   Delta X     New X
                                 (Linear)    (Quad)   (Total)
    B1        3.06019  -0.00006   0.00000  -0.00005  -0.00005   3.06013
    B2        2.69020  -0.00012   0.00000  -0.00056  -0.00056   2.68965
    B3        3.90355   0.00002   0.00000   0.00024   0.00024   3.90379
    A1        1.67619  -0.00027   0.00000  -0.00103  -0.00103   1.67516
    A2        1.75868  -0.00009   0.00000  -0.00025  -0.00025   1.75843
    D1        1.68034  -0.00015   0.00000  -0.00075  -0.00075   1.67959
         Item               Value     Threshold  Converged?
 Maximum Force            0.000268     0.000450     YES
 RMS     Force            0.000141     0.000300     YES
 Maximum Displacement     0.001034     0.001800     YES
 RMS     Displacement     0.000587     0.001200     YES
 Predicted change in Energy=-2.428367D-07
 Optimization completed.
    -- Stationary point found.
                       ----------------------------
                       !   Optimized Parameters   !
                       ! (Angstroms and Degrees)  !
 ----------------------                            ----------------------
 !      Name          Value   Derivative information (Atomic Units)     !
 ------------------------------------------------------------------------
 !       B1          1.6194   -DE/DX =   -0.0001                        !
 !       B2          1.4236   -DE/DX =   -0.0001                        !
 !       B3          2.0657   -DE/DX =    0.0                           !
 !       A1         96.0388   -DE/DX =   -0.0003                        !
 !       A2        100.765    -DE/DX =   -0.0001                        !
 !       D1         96.2764   -DE/DX =   -0.0001                        !
 ------------------------------------------------------------------------
 GradGradGradGradGradGradGradGradGradGradGradGradGradGradGradGradGradGrad

 Unable to Open any file for archive entry.
 1\1\GINC-LAPTOP-P4FAIH0F\Freq\RCCSD-FC\def2SVP\Cl1F1H1P1\RKDQL\25-Jan-
 2024\1\\#N CCSD/def2SVP FREQ Geom=Connectivity\\GS_freq\\0,1\P\F,1,B1\
 H,1,B2,2,A1\Cl,1,B3,2,A2,3,D1,0\\B1=1.61938049\B2=1.42359496\B3=2.0656
 7151\A1=96.03876349\A2=100.7649819\D1=96.27636268\\Version=ES64L-G16Re
 vC.01\State=1-A\HF=-899.9509677\MP2=-900.3826425\MP3=-900.4052968\MP4D
 =-900.4149979\MP4DQ=-900.4089307\MP4SDQ=-900.4127826\CCSD=-900.4122457
 \RMSD=7.249e-09\RMSF=7.265e-05\ZeroPoint=0.013707\Thermal=0.0173448\ET
 ot=-900.3949009\HTot=-900.3939567\GTot=-900.4254347\Dipole=0.2899919,0
 .4069538,-0.4265031\DipoleDeriv=0.7836653,-0.0122732,0.1035162,0.05093
 71,1.4482413,0.096056,0.0180376,0.2857347,1.4317841,-0.2756063,0.01725
 02,-0.1264359,0.0108881,-0.3376995,0.089685,0.0889022,-0.2520643,-1.14
 8655,-0.3289052,-0.0489815,0.0298021,0.080736,-0.1108968,-0.0166721,-0
 .0769157,0.0066225,-0.0707779,-0.1791051,0.0439582,-0.0068891,-0.14255
 53,-0.9996193,-0.1690428,-0.0300226,-0.0403825,-0.2123428\PG=C01 [X(Cl
 1F1H1P1)]\NImag=0\\0.27733241,-0.00748862,0.21735753,0.00537751,-0.007
 67809,0.36071675,-0.03436147,0.00496931,-0.01889945,0.02752489,0.00174
 174,-0.03161307,0.02034248,-0.00017455,0.02796691,0.00870770,0.0105708
 5,-0.31625085,-0.01103099,0.00490026,0.33685382,-0.22027948,0.00250696
 ,0.01655193,0.00383118,0.00100513,0.00356388,0.21496411,0.02876726,-0.
 02517191,0.00201806,-0.00436370,0.00363126,-0.00056614,-0.00232248,0.0
 3015170,-0.01042054,0.00429215,-0.02550724,0.03019781,-0.00307674,-0.0
 1376267,-0.01890878,0.00090155,0.03715096,-0.02269044,0.00001179,-0.00
 302908,0.00300456,-0.00257113,-0.00124264,0.00148474,-0.02208085,-0.00
 086660,0.01820040,-0.02301969,-0.16057469,-0.01467937,-0.00043251,0.00
 001496,-0.01490420,-0.00118912,-0.00861132,-0.00211754,0.02464046,0.16
 917342,-0.00366275,-0.00718418,-0.01895452,-0.00026802,-0.02216564,-0.
 00684114,-0.00120750,-0.00235266,0.00211707,0.00513750,0.03169923,0.02
 367715\\0.00002273,-0.00012120,0.00007471,-0.00009346,0.00003664,0.000
 05654,0.00010621,0.00005516,-0.00011156,-0.00003548,0.00002940,-0.0000
 1969\\\@
 The archive entry for this job was punched.


 TELEVISION IS CALLED A MEDIUM BECAUSE IT ISN'T
 RARE, AND IT ISN'T WELL DONE.
 Job cpu time:       0 days  0 hours  6 minutes 24.0 seconds.
 Elapsed time:       0 days  0 hours  7 minutes 54.6 seconds.
 File lengths (MBytes):  RWF=    140 Int=      0 D2E=      0 Chk=     38 Scr=      1
 Normal termination of Gaussian 16 at Thu Jan 25 06:45:34 2024.