 Entering Gaussian System, Link 0=/home/rkdql/gaussian_c01/g16/g16
 Initial command:
 /home/rkdql/gaussian_c01/g16/l1.exe "/tmp/webmo-1487/48/Gau-1659.inp" -scrdir="/tmp/webmo-1487/48/"
 Entering Link 1 = /home/rkdql/gaussian_c01/g16/l1.exe PID=      1661.
  
 Copyright (c) 1988-2019, Gaussian, Inc.  All Rights Reserved.
  
 This is part of the Gaussian(R) 16 program.  It is based on
 the Gaussian(R) 09 system (copyright 2009, Gaussian, Inc.),
 the Gaussian(R) 03 system (copyright 2003, Gaussian, Inc.),
 the Gaussian(R) 98 system (copyright 1998, Gaussian, Inc.),
 the Gaussian(R) 94 system (copyright 1995, Gaussian, Inc.),
 the Gaussian 92(TM) system (copyright 1992, Gaussian, Inc.),
 the Gaussian 90(TM) system (copyright 1990, Gaussian, Inc.),
 the Gaussian 88(TM) system (copyright 1988, Gaussian, Inc.),
 the Gaussian 86(TM) system (copyright 1986, Carnegie Mellon
 University), and the Gaussian 82(TM) system (copyright 1983,
 Carnegie Mellon University). Gaussian is a federally registered
 trademark of Gaussian, Inc.
  
 This software contains proprietary and confidential information,
 including trade secrets, belonging to Gaussian, Inc.
  
 This software is provided under written license and may be
 used, copied, transmitted, or stored only in accord with that
 written license.
  
 The following legend is applicable only to US Government
 contracts under FAR:
  
                    RESTRICTED RIGHTS LEGEND
  
 Use, reproduction and disclosure by the US Government is
 subject to restrictions as set forth in subparagraphs (a)
 and (c) of the Commercial Computer Software - Restricted
 Rights clause in FAR 52.227-19.
  
 Gaussian, Inc.
 340 Quinnipiac St., Bldg. 40, Wallingford CT 06492
  
  
 ---------------------------------------------------------------
 Warning -- This program may not be used in any manner that
 competes with the business of Gaussian, Inc. or will provide
 assistance to any competitor of Gaussian, Inc.  The licensee
 of this program is prohibited from giving any competitor of
 Gaussian, Inc. access to this program.  By using this program,
 the user acknowledges that Gaussian, Inc. is engaged in the
 business of creating and licensing software in the field of
 computational chemistry and represents and warrants to the
 licensee that it is not a competitor of Gaussian, Inc. and that
 it will not use this program in any manner prohibited above.
 ---------------------------------------------------------------
  

 Cite this work as:
 Gaussian 16, Revision C.01,
 M. J. Frisch, G. W. Trucks, H. B. Schlegel, G. E. Scuseria, 
 M. A. Robb, J. R. Cheeseman, G. Scalmani, V. Barone, 
 G. A. Petersson, H. Nakatsuji, X. Li, M. Caricato, A. V. Marenich, 
 J. Bloino, B. G. Janesko, R. Gomperts, B. Mennucci, H. P. Hratchian, 
 J. V. Ortiz, A. F. Izmaylov, J. L. Sonnenberg, D. Williams-Young, 
 F. Ding, F. Lipparini, F. Egidi, J. Goings, B. Peng, A. Petrone, 
 T. Henderson, D. Ranasinghe, V. G. Zakrzewski, J. Gao, N. Rega, 
 G. Zheng, W. Liang, M. Hada, M. Ehara, K. Toyota, R. Fukuda, 
 J. Hasegawa, M. Ishida, T. Nakajima, Y. Honda, O. Kitao, H. Nakai, 
 T. Vreven, K. Throssell, J. A. Montgomery, Jr., J. E. Peralta, 
 F. Ogliaro, M. J. Bearpark, J. J. Heyd, E. N. Brothers, K. N. Kudin, 
 V. N. Staroverov, T. A. Keith, R. Kobayashi, J. Normand, 
 K. Raghavachari, A. P. Rendell, J. C. Burant, S. S. Iyengar, 
 J. Tomasi, M. Cossi, J. M. Millam, M. Klene, C. Adamo, R. Cammi, 
 J. W. Ochterski, R. L. Martin, K. Morokuma, O. Farkas, 
 J. B. Foresman, and D. J. Fox, Gaussian, Inc., Wallingford CT, 2019.
 
 ******************************************
 Gaussian 16:  ES64L-G16RevC.01  3-Jul-2019
                25-Jan-2024 
 ******************************************
 --------------------------------------
 #N CCSD/def2SVP FREQ Geom=Connectivity
 --------------------------------------
 1/10=4,30=1,38=11,57=2/1,6,3;
 2/12=2,17=6,18=5,40=1/2;
 3/5=43,7=101,11=9,25=1,30=1,71=1/1,2,3;
 4/69=2/1;
 5/5=2,38=5,98=1/2;
 8/6=4,9=120000,10=1/1,4;
 9/5=7,15=1/13;
 11/28=-8,29=200,42=3/11;
 10/5=6/2;
 6/7=2,8=2,9=2,10=2,22=-1/1;
 7/12=7/1,2,3,16;
 1/38=10/6(3);
 7/8=1,25=1,44=-1/16;
 1/10=4,30=1,38=10/3;
 99//99;
 3/5=43,7=101,11=9,25=1,30=1,71=1/1,2,3;
 4/5=5,16=3,69=2/1;
 5/5=2,38=5,98=1/2;
 8/6=4,9=120000,10=1/1,4;
 9/5=7,15=1/13;
 11/28=-8,29=200,42=3/11;
 10/5=6/2;
 6/7=2,8=2,9=2,10=2,22=-1/1;
 7/7=1,12=7/1,2,3,16;
 1/38=10/6(-9);
 7/8=1,25=1,44=-1/16;
 1/10=4,30=1,38=10/3;
 99//99;
 -------
 TS_freq
 -------
 Symbolic Z-matrix:
 Charge =  0 Multiplicity = 1
 P
 F                    1    B1
 Cl                   1    B2       2    A1
 H                    1    B3       2    A2       3    D1       0
       Variables:
  B1                    1.61495                  
  B2                    2.00789                  
  B3                    1.37389                  
  A1                  115.33703                  
  A2                  118.03874                  
  D1                 -179.99618                  
 
 Numerical evaluation of force-constants.
 Nuclear step= 0.001000 Angstroms, electric field step= 0.000333 atomic units, NStep=1.

 GradGradGradGradGradGradGradGradGradGradGradGradGradGradGradGradGradGrad
 Berny optimization.
 Initialization pass.
                       ----------------------------
                       !    Initial Parameters    !
                       ! (Angstroms and Degrees)  !
 ----------------------                            ----------------------
 !      Name          Value   Derivative information (Atomic Units)     !
 ------------------------------------------------------------------------
 !       B1          1.615    calculate D2E/DX2 analytically            !
 !       B2          2.0079   calculate D2E/DX2 analytically            !
 !       B3          1.3739   calculate D2E/DX2 analytically            !
 !       A1        115.337    calculate D2E/DX2 analytically            !
 !       A2        118.0387   calculate D2E/DX2 analytically            !
 !       D1       -179.9962   calculate D2E/DX2 analytically            !
 ------------------------------------------------------------------------
 Trust Radius=3.00D-01 FncErr=1.00D-07 GrdErr=1.00D-07 EigMax=2.50D+02 EigMin=1.00D-04
 Number of steps in this run=      2 maximum allowed number of steps=      2.
 GradGradGradGradGradGradGradGradGradGradGradGradGradGradGradGradGradGrad

                          Input orientation:                          
 ---------------------------------------------------------------------
 Center     Atomic      Atomic             Coordinates (Angstroms)
 Number     Number       Type             X           Y           Z
 ---------------------------------------------------------------------
      1         15           0        0.000000    0.000000    0.000000
      2          9           0        0.000000    0.000000    1.614951
      3         17           0        1.814741    0.000000   -0.859260
      4          1           0       -1.212641    0.000081   -0.645825
 ---------------------------------------------------------------------
                    Distance matrix (angstroms):
                    1          2          3          4
     1  P    0.000000
     2  F    1.614951   0.000000
     3  Cl   2.007888   3.068388   0.000000
     4  H    1.373895   2.565463   3.034896   0.000000
 Stoichiometry    ClFHP
 Framework group  C1[X(ClFHP)]
 Deg. of freedom     6
 Full point group                 C1      NOp   1
 Largest Abelian subgroup         C1      NOp   1
 Largest concise Abelian subgroup C1      NOp   1
                         Standard orientation:                         
 ---------------------------------------------------------------------
 Center     Atomic      Atomic             Coordinates (Angstroms)
 Number     Number       Type             X           Y           Z
 ---------------------------------------------------------------------
      1         15           0       -0.511625    0.486309   -0.000009
      2          9           0       -1.652289   -0.656911    0.000005
      3         17           0        1.379934   -0.187202    0.000002
      4          1           0       -0.913896    1.799993    0.000055
 ---------------------------------------------------------------------
 Rotational constants (GHZ):          25.3773661           3.9652968           3.4294362
 Standard basis: def2SVP (5D, 7F)
 There are    58 symmetry adapted cartesian basis functions of A   symmetry.
 There are    55 symmetry adapted basis functions of A   symmetry.
    55 basis functions,   106 primitive gaussians,    58 cartesian basis functions
    21 alpha electrons       21 beta electrons
       nuclear repulsion energy       148.4256624139 Hartrees.
 NAtoms=    4 NActive=    4 NUniq=    4 SFac= 1.00D+00 NAtFMM=   60 NAOKFM=F Big=F
 Integral buffers will be    131072 words long.
 Raffenetti 1 integral format.
 Two-electron integral symmetry is turned on.
 One-electron integrals computed using PRISM.
   1 Symmetry operations used in ECPInt.
 ECPInt:  NShTT=     325 NPrTT=    1493 LenC2=     321 LenP2D=    1199.
 LDataN:  DoStor=T MaxTD1= 4 Len=   56
 NBasis=    55 RedAO= T EigKep=  2.81D-02  NBF=    55
 NBsUse=    55 1.00D-06 EigRej= -1.00D+00 NBFU=    55
 ExpMin= 1.05D-01 ExpMax= 1.04D+04 ExpMxC= 1.57D+03 IAcc=3 IRadAn=         5 AccDes= 0.00D+00
 Harris functional with IExCor=  205 and IRadAn=       5 diagonalized for initial guess.
 HarFok:  IExCor=  205 AccDes= 0.00D+00 IRadAn=         5 IDoV= 1 UseB2=F ITyADJ=14
 ICtDFT=  3500011 ScaDFX=  1.000000  1.000000  1.000000  1.000000
 FoFCou: FMM=F IPFlag=           0 FMFlag=      100000 FMFlg1=           0
         NFxFlg=           0 DoJE=T BraDBF=F KetDBF=T FulRan=T
         wScrn=  0.000000 ICntrl=       500 IOpCl=  0 I1Cent=   200000004 NGrid=           0
         NMat0=    1 NMatS0=      1 NMatT0=    0 NMatD0=    1 NMtDS0=    0 NMtDT0=    0
 Petite list used in FoFCou.
 Keep R1 ints in memory in canonical form, NReq=2030126.
 Requested convergence on RMS density matrix=1.00D-08 within 128 cycles.
 Requested convergence on MAX density matrix=1.00D-06.
 Requested convergence on             energy=1.00D-06.
 No special actions if energy rises.
 SCF Done:  E(RHF) =  -899.820013667     A.U. after   12 cycles
            NFock= 12  Conv=0.78D-08     -V/T= 2.0002
 ExpMin= 1.05D-01 ExpMax= 1.04D+04 ExpMxC= 1.57D+03 IAcc=3 IRadAn=         5 AccDes= 0.00D+00
 HarFok:  IExCor=  205 AccDes= 0.00D+00 IRadAn=         5 IDoV=-2 UseB2=F ITyADJ=14
 ICtDFT= 12500011 ScaDFX=  1.000000  1.000000  1.000000  1.000000
 Range of M.O.s used for correlation:    12    55
 NBasis=    55 NAE=    21 NBE=    21 NFC=    11 NFV=     0
 NROrb=     44 NOA=    10 NOB=    10 NVA=    34 NVB=    34
 Semi-Direct transformation.
 ModeAB=           2 MOrb=            10 LenV=     104642659
 LASXX=       347920 LTotXX=      347920 LenRXX=      347920
 LTotAB=      372350 MaxLAS=      752840 LenRXY=      752840
 NonZer=      775720 LenScr=     1744896 LnRSAI=           0
 LnScr1=           0 LExtra=           0 Total=      2845656
 MaxDsk=          -1 SrtSym=           F ITran=            4
 JobTyp=0 Pass  1:  I=   1 to  10.
 (rs|ai) integrals will be sorted in core.
 SymMOI:  orbitals are not symmetric.
 Spin components of T(2) and E(2):
     alpha-alpha T2 =       0.1780098590D-01 E2=     -0.5729782835D-01
     alpha-beta  T2 =       0.1084187892D+00 E2=     -0.3270996722D+00
     beta-beta   T2 =       0.1780098590D-01 E2=     -0.5729782835D-01
 ANorm=    0.1069589062D+01
 E2 =    -0.4416953289D+00 EUMP2 =    -0.90026170899552D+03
 Keep R2 and R3 ints in memory in canonical form, NReq=3220181.
 CIDS: In Core Option IDoMem=           1.
 Iterations=  50 Convergence= 0.100D-07
 Produce multiple copies of IABC intergrals
 Iteration Nr.   1
 **********************
 DD1Dir will call FoFMem   1 times, MxPair=       110
 NAB=    55 NAA=     0 NBB=     0.
 MP4(R+Q)=  0.73420857D-02
 E3=       -0.24737895D-01        EUMP3=      -0.90028644689D+03
 E4(DQ)=   -0.38628242D-02        UMP4(DQ)=   -0.90029030971D+03
 E4(SDQ)=  -0.75025296D-02        UMP4(SDQ)=  -0.90029394942D+03
 DE(Corr)= -0.45881036     E(Corr)=     -900.27882403    
 NORM(A)=   0.10816854D+01
 Iteration Nr.   2
 **********************
 DD1Dir will call FoFMem   1 times, MxPair=       110
 NAB=    55 NAA=     0 NBB=     0.
 DE(Corr)= -0.47036636     E(CORR)=     -900.29038003     Delta=-1.16D-02
 NORM(A)=   0.10896889D+01
 Iteration Nr.   3
 **********************
 DD1Dir will call FoFMem   1 times, MxPair=       110
 NAB=    55 NAA=     0 NBB=     0.
 DE(Corr)= -0.47190206     E(CORR)=     -900.29191572     Delta=-1.54D-03
 NORM(A)=   0.10929188D+01
 Iteration Nr.   4
 **********************
 DD1Dir will call FoFMem   1 times, MxPair=       110
 NAB=    55 NAA=     0 NBB=     0.
 DE(Corr)= -0.47339893     E(CORR)=     -900.29341259     Delta=-1.50D-03
 NORM(A)=   0.10945865D+01
 Iteration Nr.   5
 **********************
 DD1Dir will call FoFMem   1 times, MxPair=       110
 NAB=    55 NAA=     0 NBB=     0.
 DE(Corr)= -0.47363022     E(CORR)=     -900.29364389     Delta=-2.31D-04
 NORM(A)=   0.10952860D+01
 Iteration Nr.   6
 **********************
 DD1Dir will call FoFMem   1 times, MxPair=       110
 NAB=    55 NAA=     0 NBB=     0.
 DE(Corr)= -0.47369111     E(CORR)=     -900.29370477     Delta=-6.09D-05
 NORM(A)=   0.10954023D+01
 Iteration Nr.   7
 **********************
 DD1Dir will call FoFMem   1 times, MxPair=       110
 NAB=    55 NAA=     0 NBB=     0.
 DE(Corr)= -0.47369755     E(CORR)=     -900.29371121     Delta=-6.44D-06
 NORM(A)=   0.10954224D+01
 Iteration Nr.   8
 **********************
 DD1Dir will call FoFMem   1 times, MxPair=       110
 NAB=    55 NAA=     0 NBB=     0.
 DE(Corr)= -0.47369409     E(CORR)=     -900.29370775     Delta= 3.46D-06
 NORM(A)=   0.10954267D+01
 Iteration Nr.   9
 **********************
 DD1Dir will call FoFMem   1 times, MxPair=       110
 NAB=    55 NAA=     0 NBB=     0.
 DE(Corr)= -0.47369730     E(CORR)=     -900.29371096     Delta=-3.21D-06
 NORM(A)=   0.10954284D+01
 Iteration Nr.  10
 **********************
 DD1Dir will call FoFMem   1 times, MxPair=       110
 NAB=    55 NAA=     0 NBB=     0.
 DE(Corr)= -0.47369750     E(CORR)=     -900.29371117     Delta=-2.04D-07
 NORM(A)=   0.10954296D+01
 Iteration Nr.  11
 **********************
 DD1Dir will call FoFMem   1 times, MxPair=       110
 NAB=    55 NAA=     0 NBB=     0.
 DE(Corr)= -0.47369835     E(CORR)=     -900.29371201     Delta=-8.45D-07
 NORM(A)=   0.10954307D+01
 Iteration Nr.  12
 **********************
 DD1Dir will call FoFMem   1 times, MxPair=       110
 NAB=    55 NAA=     0 NBB=     0.
 DE(Corr)= -0.47369851     E(CORR)=     -900.29371218     Delta=-1.67D-07
 NORM(A)=   0.10954315D+01
 Iteration Nr.  13
 **********************
 DD1Dir will call FoFMem   1 times, MxPair=       110
 NAB=    55 NAA=     0 NBB=     0.
 DE(Corr)= -0.47369866     E(CORR)=     -900.29371233     Delta=-1.48D-07
 NORM(A)=   0.10954320D+01
 Iteration Nr.  14
 **********************
 DD1Dir will call FoFMem   1 times, MxPair=       110
 NAB=    55 NAA=     0 NBB=     0.
 DE(Corr)= -0.47369872     E(CORR)=     -900.29371239     Delta=-5.76D-08
 NORM(A)=   0.10954323D+01
 Iteration Nr.  15
 **********************
 DD1Dir will call FoFMem   1 times, MxPair=       110
 NAB=    55 NAA=     0 NBB=     0.
 DE(Corr)= -0.47369874     E(CORR)=     -900.29371241     Delta=-2.52D-08
 NORM(A)=   0.10954324D+01
 Iteration Nr.  16
 **********************
 DD1Dir will call FoFMem   1 times, MxPair=       110
 NAB=    55 NAA=     0 NBB=     0.
 DE(Corr)= -0.47369876     E(CORR)=     -900.29371243     Delta=-1.54D-08
 NORM(A)=   0.10954324D+01
 Iteration Nr.  17
 **********************
 DD1Dir will call FoFMem   1 times, MxPair=       110
 NAB=    55 NAA=     0 NBB=     0.
 DE(Corr)= -0.47369876     E(CORR)=     -900.29371243     Delta=-1.85D-09
 NORM(A)=   0.10954324D+01
 Wavefunction amplitudes converged. E(Corr)=     -900.29371243    
 Dominant configurations:
 ***********************
 Spin Case        I    J    A    B          Value
   ABAB          21   21   22   22      -0.161011D+00
 Largest amplitude= 1.61D-01

 Z-amplitude iterations

 Iteration Nr.   1
 **********************
 DD1Dir will call FoFMem   1 times, MxPair=       110
 NAB=    55 NAA=     0 NBB=     0.
 DE(Z)= -0.46122774     E(Z)=     -900.28124141     Delta= 1.25D-02
 NORM(A)=   0.10954334D+01
 Iteration Nr.   2
 **********************
 DD1Dir will call FoFMem   1 times, MxPair=       110
 NAB=    55 NAA=     0 NBB=     0.
 DE(Z)= -0.46122800     E(Z)=     -900.28124167     Delta=-2.61D-07
 NORM(A)=   0.10954313D+01
 Iteration Nr.   3
 **********************
 DD1Dir will call FoFMem   1 times, MxPair=       110
 NAB=    55 NAA=     0 NBB=     0.
 DE(Z)= -0.46122750     E(Z)=     -900.28124117     Delta= 5.05D-07
 NORM(A)=   0.10954213D+01
 Iteration Nr.   4
 **********************
 DD1Dir will call FoFMem   1 times, MxPair=       110
 NAB=    55 NAA=     0 NBB=     0.
 DE(Z)= -0.46122520     E(Z)=     -900.28123887     Delta= 2.29D-06
 NORM(A)=   0.10954255D+01
 Iteration Nr.   5
 **********************
 DD1Dir will call FoFMem   1 times, MxPair=       110
 NAB=    55 NAA=     0 NBB=     0.
 DE(Z)= -0.46122620     E(Z)=     -900.28123987     Delta=-9.95D-07
 NORM(A)=   0.10862893D+01
 Iteration Nr.   6
 **********************
 DD1Dir will call FoFMem   1 times, MxPair=       110
 NAB=    55 NAA=     0 NBB=     0.
 DE(Z)= -0.45906498     E(Z)=     -900.27907864     Delta= 2.16D-03
 NORM(A)=   0.10862716D+01
 Iteration Nr.   7
 **********************
 DD1Dir will call FoFMem   1 times, MxPair=       110
 NAB=    55 NAA=     0 NBB=     0.
 DE(Z)= -0.45906702     E(Z)=     -900.27908069     Delta=-2.04D-06
 NORM(A)=   0.10862604D+01
 Iteration Nr.   8
 **********************
 DD1Dir will call FoFMem   1 times, MxPair=       110
 NAB=    55 NAA=     0 NBB=     0.
 DE(Z)= -0.45906767     E(Z)=     -900.27908133     Delta=-6.48D-07
 NORM(A)=   0.10862539D+01
 Iteration Nr.   9
 **********************
 DD1Dir will call FoFMem   1 times, MxPair=       110
 NAB=    55 NAA=     0 NBB=     0.
 DE(Z)= -0.45906771     E(Z)=     -900.27908138     Delta=-4.09D-08
 NORM(A)=   0.10862522D+01
 Iteration Nr.  10
 **********************
 DD1Dir will call FoFMem   1 times, MxPair=       110
 NAB=    55 NAA=     0 NBB=     0.
 DE(Z)= -0.45906744     E(Z)=     -900.27908110     Delta= 2.72D-07
 NORM(A)=   0.10862518D+01
 Iteration Nr.  11
 **********************
 DD1Dir will call FoFMem   1 times, MxPair=       110
 NAB=    55 NAA=     0 NBB=     0.
 DE(Z)= -0.45906747     E(Z)=     -900.27908114     Delta=-3.50D-08
 NORM(A)=   0.10862518D+01
 Iteration Nr.  12
 **********************
 DD1Dir will call FoFMem   1 times, MxPair=       110
 NAB=    55 NAA=     0 NBB=     0.
 DE(Z)= -0.45906748     E(Z)=     -900.27908115     Delta=-9.06D-09
 NORM(A)=   0.10862518D+01
 Z-amplitudes converged.
 Discarding MO integrals.
          IDoAtm=1111
          Differentiating once with respect to electric field.
                with respect to dipole field.
          Differentiating once with respect to nuclear coordinates.
 Keep R1 ints in memory in canonical form, NReq=2031112.
          There are     1 degrees of freedom in the 1st order CPHF.  IDoFFX=0 NUNeed=     1.
 LinEq1:  Iter=  0 NonCon=     1 RMS=4.55D-03 Max=3.98D-02 NDo=     1
 AX will form     1 AO Fock derivatives at one time.
 LinEq1:  Iter=  1 NonCon=     1 RMS=1.33D-03 Max=1.45D-02 NDo=     1
 LinEq1:  Iter=  2 NonCon=     1 RMS=3.99D-04 Max=2.96D-03 NDo=     1
 LinEq1:  Iter=  3 NonCon=     1 RMS=1.18D-04 Max=1.11D-03 NDo=     1
 LinEq1:  Iter=  4 NonCon=     1 RMS=2.83D-05 Max=2.44D-04 NDo=     1
 LinEq1:  Iter=  5 NonCon=     1 RMS=6.97D-06 Max=6.21D-05 NDo=     1
 LinEq1:  Iter=  6 NonCon=     1 RMS=1.83D-06 Max=2.50D-05 NDo=     1
 LinEq1:  Iter=  7 NonCon=     1 RMS=4.68D-07 Max=5.01D-06 NDo=     1
 LinEq1:  Iter=  8 NonCon=     1 RMS=1.07D-07 Max=1.29D-06 NDo=     1
 LinEq1:  Iter=  9 NonCon=     1 RMS=2.07D-08 Max=1.55D-07 NDo=     1
 LinEq1:  Iter= 10 NonCon=     1 RMS=3.15D-09 Max=3.59D-08 NDo=     1
 LinEq1:  Iter= 11 NonCon=     1 RMS=7.98D-10 Max=1.54D-08 NDo=     1
 LinEq1:  Iter= 12 NonCon=     1 RMS=1.61D-10 Max=1.45D-09 NDo=     1
 LinEq1:  Iter= 13 NonCon=     0 RMS=3.18D-11 Max=2.08D-10 NDo=     1
 Linear equations converged to 1.000D-10 1.000D-09 after    13 iterations.
 End of Minotr F.D. properties file   721 does not exist.
 End of Minotr F.D. properties file   722 does not exist.
 End of Minotr F.D. properties file   788 does not exist.

 **********************************************************************

            Population analysis using the CC Density.

 **********************************************************************

 Orbital symmetries:
       Occupied  (A) (A) (A) (A) (A) (A) (A) (A) (A) (A) (A) (A)
                 (A) (A) (A) (A) (A) (A) (A) (A) (A)
       Virtual   (A) (A) (A) (A) (A) (A) (A) (A) (A) (A) (A) (A)
                 (A) (A) (A) (A) (A) (A) (A) (A) (A) (A) (A) (A)
                 (A) (A) (A) (A) (A) (A) (A) (A) (A) (A)
 The electronic state is 1-A.
 Alpha  occ. eigenvalues -- -104.84091 -80.00533 -26.31153 -10.60300  -8.07804
 Alpha  occ. eigenvalues --   -8.07434  -8.07361  -7.56917  -5.47288  -5.47132
 Alpha  occ. eigenvalues --   -5.46934  -1.58566  -1.14372  -0.84857  -0.70159
 Alpha  occ. eigenvalues --   -0.69590  -0.68151  -0.58291  -0.52262  -0.50605
 Alpha  occ. eigenvalues --   -0.28932
 Alpha virt. eigenvalues --    0.04822   0.16578   0.23046   0.36808   0.49719
 Alpha virt. eigenvalues --    0.64513   0.65799   0.71218   0.72053   0.76131
 Alpha virt. eigenvalues --    0.81027   0.90709   0.92907   0.96581   1.00656
 Alpha virt. eigenvalues --    1.03033   1.05602   1.14508   1.18047   1.21729
 Alpha virt. eigenvalues --    1.25271   1.51484   1.53665   1.54578   1.62909
 Alpha virt. eigenvalues --    1.77357   1.82411   2.02689   2.41956   3.43448
 Alpha virt. eigenvalues --    3.43698   3.49713   3.52122   3.88965
          Condensed to atoms (all electrons):
               1          2          3          4
     1  P   13.875016   0.188573   0.190068   0.331962
     2  F    0.188573   9.192373  -0.009587  -0.010759
     3  Cl   0.190068  -0.009587  16.967732  -0.013759
     4  H    0.331962  -0.010759  -0.013759   0.611882
 Mulliken charges:
               1
     1  P    0.414381
     2  F   -0.360601
     3  Cl  -0.134454
     4  H    0.080674
 Sum of Mulliken charges =  -0.00000
 Mulliken charges with hydrogens summed into heavy atoms:
               1
     1  P    0.495054
     2  F   -0.360601
     3  Cl  -0.134454
 Electronic spatial extent (au):  <R**2>=            328.7679
 Charge=              0.0000 electrons
 Dipole moment (field-independent basis, Debye):
    X=              0.3811    Y=              1.7270    Z=              0.0002  Tot=              1.7686
 Quadrupole moment (field-independent basis, Debye-Ang):
   XX=            -31.1018   YY=            -27.8982   ZZ=            -32.7103
   XY=             -2.4849   XZ=             -0.0002   YZ=              0.0002
 Traceless Quadrupole moment (field-independent basis, Debye-Ang):
   XX=             -0.5317   YY=              2.6719   ZZ=             -2.1402
   XY=             -2.4849   XZ=             -0.0002   YZ=              0.0002
 Octapole moment (field-independent basis, Debye-Ang**2):
  XXX=             -0.7053  YYY=             -0.2682  ZZZ=              0.0005  XYY=             -3.1559
  XXY=              0.9323  XXZ=              0.0001  XZZ=             -1.2447  YZZ=             -3.5600
  YYZ=              0.0003  XYZ=             -0.0001
 Hexadecapole moment (field-independent basis, Debye-Ang**3):
 XXXX=           -265.7545 YYYY=            -67.0593 ZZZZ=            -39.2629 XXXY=             -1.9813
 XXXZ=             -0.0003 YYYX=              1.9320 YYYZ=              0.0004 ZZZX=             -0.0003
 ZZZY=              0.0003 XXYY=            -56.0697 XXZZ=            -52.7944 YYZZ=            -20.4869
 XXYZ=              0.0002 YYXZ=             -0.0002 ZZXY=              3.3241
 N-N= 1.484256624139D+02 E-N=-2.441429128002D+03  KE= 9.000855300644D+02
   1 Symmetry operations used in ECPInt.
 ECPInt:  NShTT=     325 NPrTT=    1493 LenC2=     321 LenP2D=    1199.
 LDataN:  DoStor=T MaxTD1= 5 Len=  102
 Calling FoFJK, ICntrl=  10002127 FMM=F ISym2X=0 I1Cent= 0 IOpClX= 0 NMat=1 NMatS=1 NMatT=0.
 ***** Axes restored to original set *****
 -------------------------------------------------------------------
 Center     Atomic                   Forces (Hartrees/Bohr)
 Number     Number              X              Y              Z
 -------------------------------------------------------------------
      1       15          -0.000107541   -0.000015668    0.000125880
      2        9           0.000041879    0.000004886   -0.000165074
      3       17           0.000077672    0.000004319    0.000018552
      4        1          -0.000012010    0.000006463    0.000020642
 -------------------------------------------------------------------
 Cartesian Forces:  Max     0.000165074 RMS     0.000072853
 -----------------------------------------------------------------------------------------------
                       Internal Coordinate Forces (Hartree/Bohr or radian)
  Cent   Atom   N1       Length/X         N2         Alpha/Y        N3         Beta/Z          J
 -----------------------------------------------------------------------------------------------
      1  P 
      2  F        1  -0.000165(     1)
      3  Cl       1   0.000062(     2)      2  -0.000190(     4)
      4  H        1   0.000001(     3)      2  -0.000062(     5)      3   0.000015(     6)     0
 -----------------------------------------------------------------------------------------------
 Internal  Forces:  Max     0.000189744 RMS     0.000108925
 NDeriv=     12 NFrqRd=  0 NDerD0=      0 MskFDP=       0 MskDFD=       0 MskDF0=       0
 At 1st pt F.D. properties file   721 does not exist.
 At 1st pt F.D. properties file   722 does not exist.
 D2Numr ... symmetry will be used.
 Standard basis: def2SVP (5D, 7F)
    55 basis functions,   106 primitive gaussians,    58 cartesian basis functions
    21 alpha electrons       21 beta electrons
       nuclear repulsion energy       148.4366324355 Hartrees.
 NAtoms=    4 NActive=    4 NUniq=    4 SFac= 1.00D+00 NAtFMM=   60 NAOKFM=F Big=F
 Integral buffers will be    131072 words long.
 Raffenetti 1 integral format.
 Two-electron integral symmetry is turned off.
 One-electron integrals computed using PRISM.
   1 Symmetry operations used in ECPInt.
 ECPInt:  NShTT=     325 NPrTT=    1493 LenC2=     321 LenP2D=    1199.
 LDataN:  DoStor=T MaxTD1= 4 Len=   56
 NBasis=    55 RedAO= T EigKep=  2.81D-02  NBF=    55
 NBsUse=    55 1.00D-06 EigRej= -1.00D+00 NBFU=    55
 Initial guess from the checkpoint file:  "/tmp/webmo-1487/48/Gau-1661.chk"
 B after Tr=     0.000675    0.000000   -0.000000
         Rot=    1.000000    0.000000    0.000000    0.000050 Ang=   0.01 deg.
 Keep R1 ints in memory in canonical form, NReq=2029988.
 Requested convergence on RMS density matrix=1.00D-08 within 128 cycles.
 Requested convergence on MAX density matrix=1.00D-06.
 Requested convergence on             energy=1.00D-06.
 No special actions if energy rises.
 SCF Done:  E(RHF) =  -899.819994721     A.U. after    8 cycles
            NFock=  8  Conv=0.60D-08     -V/T= 2.0002
 ExpMin= 1.05D-01 ExpMax= 1.04D+04 ExpMxC= 1.57D+03 IAcc=3 IRadAn=         5 AccDes= 0.00D+00
 HarFok:  IExCor=  205 AccDes= 0.00D+00 IRadAn=         5 IDoV=-2 UseB2=F ITyADJ=14
 ICtDFT= 12500011 ScaDFX=  1.000000  1.000000  1.000000  1.000000
 Range of M.O.s used for correlation:    12    55
 NBasis=    55 NAE=    21 NBE=    21 NFC=    11 NFV=     0
 NROrb=     44 NOA=    10 NOB=    10 NVA=    34 NVB=    34
 Semi-Direct transformation.
 ModeAB=           2 MOrb=            10 LenV=     104642659
 LASXX=       347920 LTotXX=      347920 LenRXX=      347920
 LTotAB=      372350 MaxLAS=      752840 LenRXY=      752840
 NonZer=      775720 LenScr=     1744896 LnRSAI=           0
 LnScr1=           0 LExtra=           0 Total=      2845656
 MaxDsk=          -1 SrtSym=           F ITran=            4
 JobTyp=0 Pass  1:  I=   1 to  10.
 (rs|ai) integrals will be sorted in core.
 Spin components of T(2) and E(2):
     alpha-alpha T2 =       0.1780401203D-01 E2=     -0.5730298651D-01
     alpha-beta  T2 =       0.1084256801D+00 E2=     -0.3271152009D+00
     beta-beta   T2 =       0.1780401203D-01 E2=     -0.5730298651D-01
 ANorm=    0.1069595112D+01
 E2 =    -0.4417211739D+00 EUMP2 =    -0.90026171589527D+03
 Keep R2 and R3 ints in memory in canonical form, NReq=3220043.
 CIDS: In Core Option IDoMem=           1.
 Iterations=  50 Convergence= 0.100D-07
 Produce multiple copies of IABC intergrals
 Iteration Nr.   1
 **********************
 DD1Dir will call FoFMem   1 times, MxPair=       110
 NAB=    55 NAA=     0 NBB=     0.
 MP4(R+Q)=  0.73423678D-02
 E3=       -0.24729401D-01        EUMP3=      -0.90028644530D+03
 E4(DQ)=   -0.38630443D-02        UMP4(DQ)=   -0.90029030834D+03
 E4(SDQ)=  -0.75041855D-02        UMP4(SDQ)=  -0.90029394948D+03
 DE(Corr)= -0.45882727     E(Corr)=     -900.27882199    
 NORM(A)=   0.10816870D+01
 Iteration Nr.   2
 **********************
 DD1Dir will call FoFMem   1 times, MxPair=       110
 NAB=    55 NAA=     0 NBB=     0.
 DE(Corr)= -0.47038518     E(CORR)=     -900.29037990     Delta=-1.16D-02
 NORM(A)=   0.10896896D+01
 Iteration Nr.   3
 **********************
 DD1Dir will call FoFMem   1 times, MxPair=       110
 NAB=    55 NAA=     0 NBB=     0.
 DE(Corr)= -0.47191974     E(CORR)=     -900.29191447     Delta=-1.53D-03
 NORM(A)=   0.10929188D+01
 Iteration Nr.   4
 **********************
 DD1Dir will call FoFMem   1 times, MxPair=       110
 NAB=    55 NAA=     0 NBB=     0.
 DE(Corr)= -0.47341692     E(CORR)=     -900.29341164     Delta=-1.50D-03
 NORM(A)=   0.10945855D+01
 Iteration Nr.   5
 **********************
 DD1Dir will call FoFMem   1 times, MxPair=       110
 NAB=    55 NAA=     0 NBB=     0.
 DE(Corr)= -0.47364813     E(CORR)=     -900.29364285     Delta=-2.31D-04
 NORM(A)=   0.10952847D+01
 Iteration Nr.   6
 **********************
 DD1Dir will call FoFMem   1 times, MxPair=       110
 NAB=    55 NAA=     0 NBB=     0.
 DE(Corr)= -0.47370899     E(CORR)=     -900.29370371     Delta=-6.09D-05
 NORM(A)=   0.10954010D+01
 Iteration Nr.   7
 **********************
 DD1Dir will call FoFMem   1 times, MxPair=       110
 NAB=    55 NAA=     0 NBB=     0.
 DE(Corr)= -0.47371543     E(CORR)=     -900.29371015     Delta=-6.44D-06
 NORM(A)=   0.10954211D+01
 Iteration Nr.   8
 **********************
 DD1Dir will call FoFMem   1 times, MxPair=       110
 NAB=    55 NAA=     0 NBB=     0.
 DE(Corr)= -0.47371197     E(CORR)=     -900.29370669     Delta= 3.46D-06
 NORM(A)=   0.10954254D+01
 Iteration Nr.   9
 **********************
 DD1Dir will call FoFMem   1 times, MxPair=       110
 NAB=    55 NAA=     0 NBB=     0.
 DE(Corr)= -0.47371518     E(CORR)=     -900.29370991     Delta=-3.21D-06
 NORM(A)=   0.10954271D+01
 Iteration Nr.  10
 **********************
 DD1Dir will call FoFMem   1 times, MxPair=       110
 NAB=    55 NAA=     0 NBB=     0.
 DE(Corr)= -0.47371539     E(CORR)=     -900.29371011     Delta=-2.05D-07
 NORM(A)=   0.10954283D+01
 Iteration Nr.  11
 **********************
 DD1Dir will call FoFMem   1 times, MxPair=       110
 NAB=    55 NAA=     0 NBB=     0.
 DE(Corr)= -0.47371623     E(CORR)=     -900.29371095     Delta=-8.44D-07
 NORM(A)=   0.10954294D+01
 Iteration Nr.  12
 **********************
 DD1Dir will call FoFMem   1 times, MxPair=       110
 NAB=    55 NAA=     0 NBB=     0.
 DE(Corr)= -0.47371640     E(CORR)=     -900.29371112     Delta=-1.67D-07
 NORM(A)=   0.10954302D+01
 Iteration Nr.  13
 **********************
 DD1Dir will call FoFMem   1 times, MxPair=       110
 NAB=    55 NAA=     0 NBB=     0.
 DE(Corr)= -0.47371655     E(CORR)=     -900.29371127     Delta=-1.48D-07
 NORM(A)=   0.10954307D+01
 Iteration Nr.  14
 **********************
 DD1Dir will call FoFMem   1 times, MxPair=       110
 NAB=    55 NAA=     0 NBB=     0.
 DE(Corr)= -0.47371660     E(CORR)=     -900.29371133     Delta=-5.75D-08
 NORM(A)=   0.10954310D+01
 Iteration Nr.  15
 **********************
 DD1Dir will call FoFMem   1 times, MxPair=       110
 NAB=    55 NAA=     0 NBB=     0.
 DE(Corr)= -0.47371663     E(CORR)=     -900.29371135     Delta=-2.51D-08
 NORM(A)=   0.10954311D+01
 Iteration Nr.  16
 **********************
 DD1Dir will call FoFMem   1 times, MxPair=       110
 NAB=    55 NAA=     0 NBB=     0.
 DE(Corr)= -0.47371665     E(CORR)=     -900.29371137     Delta=-1.53D-08
 NORM(A)=   0.10954311D+01
 Iteration Nr.  17
 **********************
 DD1Dir will call FoFMem   1 times, MxPair=       110
 NAB=    55 NAA=     0 NBB=     0.
 DE(Corr)= -0.47371665     E(CORR)=     -900.29371137     Delta=-1.79D-09
 NORM(A)=   0.10954311D+01
 Wavefunction amplitudes converged. E(Corr)=     -900.29371137    
 Dominant configurations:
 ***********************
 Spin Case        I    J    A    B          Value
   ABAB          21   21   22   22      -0.160983D+00
 Largest amplitude= 1.61D-01

 Z-amplitude iterations

 Iteration Nr.   1
 **********************
 DD1Dir will call FoFMem   1 times, MxPair=       110
 NAB=    55 NAA=     0 NBB=     0.
 DE(Z)= -0.46124627     E(Z)=     -900.28124099     Delta= 1.25D-02
 NORM(A)=   0.10954317D+01
 Iteration Nr.   2
 **********************
 DD1Dir will call FoFMem   1 times, MxPair=       110
 NAB=    55 NAA=     0 NBB=     0.
 DE(Z)= -0.46124644     E(Z)=     -900.28124116     Delta=-1.68D-07
 NORM(A)=   0.10954242D+01
 Iteration Nr.   3
 **********************
 DD1Dir will call FoFMem   1 times, MxPair=       110
 NAB=    55 NAA=     0 NBB=     0.
 DE(Z)= -0.46124476     E(Z)=     -900.28123948     Delta= 1.68D-06
 NORM(A)=   0.10950407D+01
 Iteration Nr.   4
 **********************
 DD1Dir will call FoFMem   1 times, MxPair=       110
 NAB=    55 NAA=     0 NBB=     0.
 DE(Z)= -0.46115720     E(Z)=     -900.28115193     Delta= 8.76D-05
 NORM(A)=   0.10954287D+01
 Iteration Nr.   5
 **********************
 DD1Dir will call FoFMem   1 times, MxPair=       110
 NAB=    55 NAA=     0 NBB=     0.
 DE(Z)= -0.46124572     E(Z)=     -900.28124044     Delta=-8.85D-05
 NORM(A)=   0.10860294D+01
 Iteration Nr.   6
 **********************
 DD1Dir will call FoFMem   1 times, MxPair=       110
 NAB=    55 NAA=     0 NBB=     0.
 DE(Z)= -0.45905637     E(Z)=     -900.27905110     Delta= 2.19D-03
 NORM(A)=   0.10862847D+01
 Iteration Nr.   7
 **********************
 DD1Dir will call FoFMem   1 times, MxPair=       110
 NAB=    55 NAA=     0 NBB=     0.
 DE(Z)= -0.45909441     E(Z)=     -900.27908913     Delta=-3.80D-05
 NORM(A)=   0.10862544D+01
 Iteration Nr.   8
 **********************
 DD1Dir will call FoFMem   1 times, MxPair=       110
 NAB=    55 NAA=     0 NBB=     0.
 DE(Z)= -0.45908708     E(Z)=     -900.27908180     Delta= 7.34D-06
 NORM(A)=   0.10862538D+01
 Iteration Nr.   9
 **********************
 DD1Dir will call FoFMem   1 times, MxPair=       110
 NAB=    55 NAA=     0 NBB=     0.
 DE(Z)= -0.45908593     E(Z)=     -900.27908065     Delta= 1.15D-06
 NORM(A)=   0.10862529D+01
 Iteration Nr.  10
 **********************
 DD1Dir will call FoFMem   1 times, MxPair=       110
 NAB=    55 NAA=     0 NBB=     0.
 DE(Z)= -0.45908595     E(Z)=     -900.27908068     Delta=-2.91D-08
 NORM(A)=   0.10862518D+01
 Iteration Nr.  11
 **********************
 DD1Dir will call FoFMem   1 times, MxPair=       110
 NAB=    55 NAA=     0 NBB=     0.
 DE(Z)= -0.45908580     E(Z)=     -900.27908052     Delta= 1.52D-07
 NORM(A)=   0.10862515D+01
 Iteration Nr.  12
 **********************
 DD1Dir will call FoFMem   1 times, MxPair=       110
 NAB=    55 NAA=     0 NBB=     0.
 DE(Z)= -0.45908580     E(Z)=     -900.27908052     Delta= 9.77D-10
 NORM(A)=   0.10862514D+01
 Z-amplitudes converged.
 Discarding MO integrals.
          IDoAtm=1111
          Differentiating once with respect to electric field.
                with respect to dipole field.
          Differentiating once with respect to nuclear coordinates.
 Keep R1 ints in memory in canonical form, NReq=2030974.
          There are     1 degrees of freedom in the 1st order CPHF.  IDoFFX=0 NUNeed=     1.
 LinEq1:  Iter=  0 NonCon=     1 RMS=4.55D-03 Max=3.98D-02 NDo=     1
 AX will form     1 AO Fock derivatives at one time.
 LinEq1:  Iter=  1 NonCon=     1 RMS=1.33D-03 Max=1.45D-02 NDo=     1
 LinEq1:  Iter=  2 NonCon=     1 RMS=3.99D-04 Max=2.96D-03 NDo=     1
 LinEq1:  Iter=  3 NonCon=     1 RMS=1.18D-04 Max=1.11D-03 NDo=     1
 LinEq1:  Iter=  4 NonCon=     1 RMS=2.83D-05 Max=2.44D-04 NDo=     1
 LinEq1:  Iter=  5 NonCon=     1 RMS=6.97D-06 Max=6.22D-05 NDo=     1
 LinEq1:  Iter=  6 NonCon=     1 RMS=1.83D-06 Max=2.50D-05 NDo=     1
 LinEq1:  Iter=  7 NonCon=     1 RMS=4.67D-07 Max=4.99D-06 NDo=     1
 LinEq1:  Iter=  8 NonCon=     1 RMS=1.07D-07 Max=1.29D-06 NDo=     1
 LinEq1:  Iter=  9 NonCon=     1 RMS=2.07D-08 Max=1.55D-07 NDo=     1
 LinEq1:  Iter= 10 NonCon=     1 RMS=3.15D-09 Max=3.58D-08 NDo=     1
 LinEq1:  Iter= 11 NonCon=     1 RMS=7.96D-10 Max=1.54D-08 NDo=     1
 LinEq1:  Iter= 12 NonCon=     1 RMS=1.61D-10 Max=1.46D-09 NDo=     1
 LinEq1:  Iter= 13 NonCon=     0 RMS=3.19D-11 Max=2.09D-10 NDo=     1
 Linear equations converged to 1.000D-10 1.000D-09 after    13 iterations.
 End of Minotr F.D. properties file   721 does not exist.
 End of Minotr F.D. properties file   722 does not exist.
 End of Minotr F.D. properties file   788 does not exist.

 **********************************************************************

            Population analysis using the CC Density.

 **********************************************************************

 Alpha  occ. eigenvalues -- -104.84099 -80.00531 -26.31135 -10.60310  -8.07815
 Alpha  occ. eigenvalues --   -8.07444  -8.07371  -7.56915  -5.47286  -5.47130
 Alpha  occ. eigenvalues --   -5.46932  -1.58528  -1.14400  -0.84842  -0.70132
 Alpha  occ. eigenvalues --   -0.69562  -0.68130  -0.58307  -0.52280  -0.50619
 Alpha  occ. eigenvalues --   -0.28930
 Alpha virt. eigenvalues --    0.04827   0.16576   0.23051   0.36800   0.49715
 Alpha virt. eigenvalues --    0.64496   0.65790   0.71219   0.72057   0.76122
 Alpha virt. eigenvalues --    0.81012   0.90726   0.92868   0.96547   1.00645
 Alpha virt. eigenvalues --    1.03023   1.05602   1.14504   1.18074   1.21744
 Alpha virt. eigenvalues --    1.25289   1.51489   1.53676   1.54592   1.62940
 Alpha virt. eigenvalues --    1.77349   1.82403   2.02713   2.41926   3.43473
 Alpha virt. eigenvalues --    3.43722   3.49712   3.52112   3.88887
          Condensed to atoms (all electrons):
               1          2          3          4
     1  P   13.875207   0.188545   0.189957   0.331961
     2  F    0.188545   9.192735  -0.009591  -0.010772
     3  Cl   0.189957  -0.009591  16.967517  -0.013757
     4  H    0.331961  -0.010772  -0.013757   0.611855
 Mulliken charges:
               1
     1  P    0.414331
     2  F   -0.360917
     3  Cl  -0.134127
     4  H    0.080713
 Sum of Mulliken charges =  -0.00000
 Mulliken charges with hydrogens summed into heavy atoms:
               1
     1  P    0.495044
     2  F   -0.360917
     3  Cl  -0.134127
 Electronic spatial extent (au):  <R**2>=            328.7150
 Charge=             -0.0000 electrons
 Dipole moment (field-independent basis, Debye):
    X=              0.3877    Y=              1.7277    Z=              0.0002  Tot=              1.7707
 Quadrupole moment (field-independent basis, Debye-Ang):
   XX=            -31.1060   YY=            -27.8975   ZZ=            -32.7093
   XY=             -2.4862   XZ=             -0.0002   YZ=              0.0002
 Traceless Quadrupole moment (field-independent basis, Debye-Ang):
   XX=             -0.5351   YY=              2.6735   ZZ=             -2.1384
   XY=             -2.4862   XZ=             -0.0002   YZ=              0.0002
 Octapole moment (field-independent basis, Debye-Ang**2):
  XXX=             -0.7194  YYY=             -0.2682  ZZZ=              0.0005  XYY=             -3.1633
  XXY=              0.9342  XXZ=              0.0001  XZZ=             -1.2551  YZZ=             -3.5597
  YYZ=              0.0003  XYZ=             -0.0001
 Hexadecapole moment (field-independent basis, Debye-Ang**3):
 XXXX=           -265.7052 YYYY=            -67.0625 ZZZZ=            -39.2601 XXXY=             -1.9990
 XXXZ=             -0.0003 YYYX=              1.9104 YYYZ=              0.0004 ZZZX=             -0.0003
 ZZZY=              0.0003 XXYY=            -56.0562 XXZZ=            -52.7810 YYZZ=            -20.4870
 XXYZ=              0.0002 YYXZ=             -0.0002 ZZXY=              3.3163
 N-N= 1.484366324355D+02 E-N=-2.441451446501D+03  KE= 9.000854440239D+02
   1 Symmetry operations used in ECPInt.
 ECPInt:  NShTT=     325 NPrTT=    1493 LenC2=     321 LenP2D=    1199.
 LDataN:  DoStor=T MaxTD1= 5 Len=  102
 Calling FoFJK, ICntrl=  10002127 FMM=F ISym2X=0 I1Cent= 0 IOpClX= 0 NMat=1 NMatS=1 NMatT=0.
 -------------------------------------------------------------------
 Center     Atomic                   Forces (Hartrees/Bohr)
 Number     Number              X              Y              Z
 -------------------------------------------------------------------
      1       15          -0.000956046   -0.000041485   -0.000015598
      2        9           0.000485136    0.000375218    0.000004855
      3       17           0.000403547   -0.000193609    0.000004312
      4        1           0.000067363   -0.000140124    0.000006431
 -------------------------------------------------------------------
 Cartesian Forces:  Max     0.000956046 RMS     0.000355519
 NDeriv=     12 NFrqRd=  0 NDerD0=      0 MskFDP=       0 MskDFD=       0 MskDF0=       0
 Re-enter D2Numr:  atom      1 IXYZ=1 step-up   number 1
 Standard basis: def2SVP (5D, 7F)
    55 basis functions,   106 primitive gaussians,    58 cartesian basis functions
    21 alpha electrons       21 beta electrons
       nuclear repulsion energy       148.4147262547 Hartrees.
 NAtoms=    4 NActive=    4 NUniq=    4 SFac= 1.00D+00 NAtFMM=   60 NAOKFM=F Big=F
 Integral buffers will be    131072 words long.
 Raffenetti 1 integral format.
 Two-electron integral symmetry is turned off.
 One-electron integrals computed using PRISM.
   1 Symmetry operations used in ECPInt.
 ECPInt:  NShTT=     325 NPrTT=    1493 LenC2=     321 LenP2D=    1199.
 LDataN:  DoStor=T MaxTD1= 4 Len=   56
 NBasis=    55 RedAO= T EigKep=  2.82D-02  NBF=    55
 NBsUse=    55 1.00D-06 EigRej= -1.00D+00 NBFU=    55
 Initial guess from the checkpoint file:  "/tmp/webmo-1487/48/Gau-1661.chk"
 B after Tr=    -0.000675   -0.000000    0.000000
         Rot=    1.000000    0.000000   -0.000000   -0.000050 Ang=  -0.01 deg.
 Keep R1 ints in memory in canonical form, NReq=2029988.
 Requested convergence on RMS density matrix=1.00D-08 within 128 cycles.
 Requested convergence on MAX density matrix=1.00D-06.
 Requested convergence on             energy=1.00D-06.
 No special actions if energy rises.
 SCF Done:  E(RHF) =  -899.820031080     A.U. after    8 cycles
            NFock=  8  Conv=0.60D-08     -V/T= 2.0002
 ExpMin= 1.05D-01 ExpMax= 1.04D+04 ExpMxC= 1.57D+03 IAcc=3 IRadAn=         5 AccDes= 0.00D+00
 HarFok:  IExCor=  205 AccDes= 0.00D+00 IRadAn=         5 IDoV=-2 UseB2=F ITyADJ=14
 ICtDFT= 12500011 ScaDFX=  1.000000  1.000000  1.000000  1.000000
 Range of M.O.s used for correlation:    12    55
 NBasis=    55 NAE=    21 NBE=    21 NFC=    11 NFV=     0
 NROrb=     44 NOA=    10 NOB=    10 NVA=    34 NVB=    34
 Semi-Direct transformation.
 ModeAB=           2 MOrb=            10 LenV=     104642659
 LASXX=       347920 LTotXX=      347920 LenRXX=      347920
 LTotAB=      372350 MaxLAS=      752840 LenRXY=      752840
 NonZer=      775720 LenScr=     1744896 LnRSAI=           0
 LnScr1=           0 LExtra=           0 Total=      2845656
 MaxDsk=          -1 SrtSym=           F ITran=            4
 JobTyp=0 Pass  1:  I=   1 to  10.
 (rs|ai) integrals will be sorted in core.
 Spin components of T(2) and E(2):
     alpha-alpha T2 =       0.1779796034D-01 E2=     -0.5729267485D-01
     alpha-beta  T2 =       0.1084119440D+00 E2=     -0.3270841729D+00
     beta-beta   T2 =       0.1779796034D-01 E2=     -0.5729267485D-01
 ANorm=    0.1069583033D+01
 E2 =    -0.4416695226D+00 EUMP2 =    -0.90026170060229D+03
 Keep R2 and R3 ints in memory in canonical form, NReq=3220043.
 CIDS: In Core Option IDoMem=           1.
 Iterations=  50 Convergence= 0.100D-07
 Produce multiple copies of IABC intergrals
 Iteration Nr.   1
 **********************
 DD1Dir will call FoFMem   1 times, MxPair=       110
 NAB=    55 NAA=     0 NBB=     0.
 MP4(R+Q)=  0.73418095D-02
 E3=       -0.24746383D-01        EUMP3=      -0.90028644699D+03
 E4(DQ)=   -0.38626042D-02        UMP4(DQ)=   -0.90029030959D+03
 E4(SDQ)=  -0.75008776D-02        UMP4(SDQ)=  -0.90029394786D+03
 DE(Corr)= -0.45879348     E(Corr)=     -900.27882456    
 NORM(A)=   0.10816837D+01
 Iteration Nr.   2
 **********************
 DD1Dir will call FoFMem   1 times, MxPair=       110
 NAB=    55 NAA=     0 NBB=     0.
 DE(Corr)= -0.47034757     E(CORR)=     -900.29037865     Delta=-1.16D-02
 NORM(A)=   0.10896882D+01
 Iteration Nr.   3
 **********************
 DD1Dir will call FoFMem   1 times, MxPair=       110
 NAB=    55 NAA=     0 NBB=     0.
 DE(Corr)= -0.47188441     E(CORR)=     -900.29191549     Delta=-1.54D-03
 NORM(A)=   0.10929188D+01
 Iteration Nr.   4
 **********************
 DD1Dir will call FoFMem   1 times, MxPair=       110
 NAB=    55 NAA=     0 NBB=     0.
 DE(Corr)= -0.47338097     E(CORR)=     -900.29341205     Delta=-1.50D-03
 NORM(A)=   0.10945875D+01
 Iteration Nr.   5
 **********************
 DD1Dir will call FoFMem   1 times, MxPair=       110
 NAB=    55 NAA=     0 NBB=     0.
 DE(Corr)= -0.47361235     E(CORR)=     -900.29364343     Delta=-2.31D-04
 NORM(A)=   0.10952874D+01
 Iteration Nr.   6
 **********************
 DD1Dir will call FoFMem   1 times, MxPair=       110
 NAB=    55 NAA=     0 NBB=     0.
 DE(Corr)= -0.47367326     E(CORR)=     -900.29370434     Delta=-6.09D-05
 NORM(A)=   0.10954037D+01
 Iteration Nr.   7
 **********************
 DD1Dir will call FoFMem   1 times, MxPair=       110
 NAB=    55 NAA=     0 NBB=     0.
 DE(Corr)= -0.47367970     E(CORR)=     -900.29371078     Delta=-6.44D-06
 NORM(A)=   0.10954237D+01
 Iteration Nr.   8
 **********************
 DD1Dir will call FoFMem   1 times, MxPair=       110
 NAB=    55 NAA=     0 NBB=     0.
 DE(Corr)= -0.47367624     E(CORR)=     -900.29370732     Delta= 3.46D-06
 NORM(A)=   0.10954281D+01
 Iteration Nr.   9
 **********************
 DD1Dir will call FoFMem   1 times, MxPair=       110
 NAB=    55 NAA=     0 NBB=     0.
 DE(Corr)= -0.47367945     E(CORR)=     -900.29371053     Delta=-3.21D-06
 NORM(A)=   0.10954298D+01
 Iteration Nr.  10
 **********************
 DD1Dir will call FoFMem   1 times, MxPair=       110
 NAB=    55 NAA=     0 NBB=     0.
 DE(Corr)= -0.47367965     E(CORR)=     -900.29371073     Delta=-2.03D-07
 NORM(A)=   0.10954309D+01
 Iteration Nr.  11
 **********************
 DD1Dir will call FoFMem   1 times, MxPair=       110
 NAB=    55 NAA=     0 NBB=     0.
 DE(Corr)= -0.47368050     E(CORR)=     -900.29371158     Delta=-8.45D-07
 NORM(A)=   0.10954321D+01
 Iteration Nr.  12
 **********************
 DD1Dir will call FoFMem   1 times, MxPair=       110
 NAB=    55 NAA=     0 NBB=     0.
 DE(Corr)= -0.47368067     E(CORR)=     -900.29371175     Delta=-1.67D-07
 NORM(A)=   0.10954328D+01
 Iteration Nr.  13
 **********************
 DD1Dir will call FoFMem   1 times, MxPair=       110
 NAB=    55 NAA=     0 NBB=     0.
 DE(Corr)= -0.47368081     E(CORR)=     -900.29371189     Delta=-1.48D-07
 NORM(A)=   0.10954334D+01
 Iteration Nr.  14
 **********************
 DD1Dir will call FoFMem   1 times, MxPair=       110
 NAB=    55 NAA=     0 NBB=     0.
 DE(Corr)= -0.47368087     E(CORR)=     -900.29371195     Delta=-5.75D-08
 NORM(A)=   0.10954336D+01
 Iteration Nr.  15
 **********************
 DD1Dir will call FoFMem   1 times, MxPair=       110
 NAB=    55 NAA=     0 NBB=     0.
 DE(Corr)= -0.47368090     E(CORR)=     -900.29371198     Delta=-2.52D-08
 NORM(A)=   0.10954338D+01
 Iteration Nr.  16
 **********************
 DD1Dir will call FoFMem   1 times, MxPair=       110
 NAB=    55 NAA=     0 NBB=     0.
 DE(Corr)= -0.47368091     E(CORR)=     -900.29371199     Delta=-1.55D-08
 NORM(A)=   0.10954338D+01
 Iteration Nr.  17
 **********************
 DD1Dir will call FoFMem   1 times, MxPair=       110
 NAB=    55 NAA=     0 NBB=     0.
 DE(Corr)= -0.47368091     E(CORR)=     -900.29371199     Delta=-1.84D-09
 NORM(A)=   0.10954338D+01
 Wavefunction amplitudes converged. E(Corr)=     -900.29371199    
 Dominant configurations:
 ***********************
 Spin Case        I    J    A    B          Value
   ABAB          21   21   22   22      -0.161038D+00
 Largest amplitude= 1.61D-01

 Z-amplitude iterations

 Iteration Nr.   1
 **********************
 DD1Dir will call FoFMem   1 times, MxPair=       110
 NAB=    55 NAA=     0 NBB=     0.
 DE(Z)= -0.46120924     E(Z)=     -900.28124032     Delta= 1.25D-02
 NORM(A)=   0.10954341D+01
 Iteration Nr.   2
 **********************
 DD1Dir will call FoFMem   1 times, MxPair=       110
 NAB=    55 NAA=     0 NBB=     0.
 DE(Z)= -0.46120933     E(Z)=     -900.28124041     Delta=-9.24D-08
 NORM(A)=   0.10954337D+01
 Iteration Nr.   3
 **********************
 DD1Dir will call FoFMem   1 times, MxPair=       110
 NAB=    55 NAA=     0 NBB=     0.
 DE(Z)= -0.46120922     E(Z)=     -900.28124030     Delta= 1.11D-07
 NORM(A)=   0.10954337D+01
 Iteration Nr.   4
 **********************
 DD1Dir will call FoFMem   1 times, MxPair=       110
 NAB=    55 NAA=     0 NBB=     0.
 DE(Z)= -0.46120922     E(Z)=     -900.28124030     Delta=-3.47D-09
 NORM(A)=   0.10954337D+01
 Iteration Nr.   5
 **********************
 DD1Dir will call FoFMem   1 times, MxPair=       110
 NAB=    55 NAA=     0 NBB=     0.
 DE(Z)= -0.46120922     E(Z)=     -900.28124030     Delta= 2.64D-10
 NORM(A)=   0.10867459D+01
 Iteration Nr.   6
 **********************
 DD1Dir will call FoFMem   1 times, MxPair=       110
 NAB=    55 NAA=     0 NBB=     0.
 DE(Z)= -0.45921836     E(Z)=     -900.27924944     Delta= 1.99D-03
 NORM(A)=   0.10864866D+01
 Iteration Nr.   7
 **********************
 DD1Dir will call FoFMem   1 times, MxPair=       110
 NAB=    55 NAA=     0 NBB=     0.
 DE(Z)= -0.45905203     E(Z)=     -900.27908311     Delta= 1.66D-04
 NORM(A)=   0.10863627D+01
 Iteration Nr.   8
 **********************
 DD1Dir will call FoFMem   1 times, MxPair=       110
 NAB=    55 NAA=     0 NBB=     0.
 DE(Z)= -0.45906792     E(Z)=     -900.27909900     Delta=-1.59D-05
 NORM(A)=   0.10862857D+01
 Iteration Nr.   9
 **********************
 DD1Dir will call FoFMem   1 times, MxPair=       110
 NAB=    55 NAA=     0 NBB=     0.
 DE(Z)= -0.45904743     E(Z)=     -900.27907851     Delta= 2.05D-05
 NORM(A)=   0.10862690D+01
 Iteration Nr.  10
 **********************
 DD1Dir will call FoFMem   1 times, MxPair=       110
 NAB=    55 NAA=     0 NBB=     0.
 DE(Z)= -0.45904851     E(Z)=     -900.27907959     Delta=-1.08D-06
 NORM(A)=   0.10862602D+01
 Iteration Nr.  11
 **********************
 DD1Dir will call FoFMem   1 times, MxPair=       110
 NAB=    55 NAA=     0 NBB=     0.
 DE(Z)= -0.45904971     E(Z)=     -900.27908079     Delta=-1.20D-06
 NORM(A)=   0.10862555D+01
 Iteration Nr.  12
 **********************
 DD1Dir will call FoFMem   1 times, MxPair=       110
 NAB=    55 NAA=     0 NBB=     0.
 DE(Z)= -0.45904941     E(Z)=     -900.27908049     Delta= 3.00D-07
 NORM(A)=   0.10862530D+01
 Iteration Nr.  13
 **********************
 DD1Dir will call FoFMem   1 times, MxPair=       110
 NAB=    55 NAA=     0 NBB=     0.
 DE(Z)= -0.45904928     E(Z)=     -900.27908036     Delta= 1.31D-07
 NORM(A)=   0.10862526D+01
 Iteration Nr.  14
 **********************
 DD1Dir will call FoFMem   1 times, MxPair=       110
 NAB=    55 NAA=     0 NBB=     0.
 DE(Z)= -0.45904917     E(Z)=     -900.27908025     Delta= 1.10D-07
 NORM(A)=   0.10862524D+01
 Iteration Nr.  15
 **********************
 DD1Dir will call FoFMem   1 times, MxPair=       110
 NAB=    55 NAA=     0 NBB=     0.
 DE(Z)= -0.45904918     E(Z)=     -900.27908025     Delta=-4.72D-09
 NORM(A)=   0.10862523D+01
 Z-amplitudes converged.
 Discarding MO integrals.
          IDoAtm=1111
          Differentiating once with respect to electric field.
                with respect to dipole field.
          Differentiating once with respect to nuclear coordinates.
 Keep R1 ints in memory in canonical form, NReq=2030974.
          There are     1 degrees of freedom in the 1st order CPHF.  IDoFFX=0 NUNeed=     1.
 LinEq1:  Iter=  0 NonCon=     1 RMS=4.55D-03 Max=3.98D-02 NDo=     1
 AX will form     1 AO Fock derivatives at one time.
 LinEq1:  Iter=  1 NonCon=     1 RMS=1.33D-03 Max=1.45D-02 NDo=     1
 LinEq1:  Iter=  2 NonCon=     1 RMS=3.99D-04 Max=2.96D-03 NDo=     1
 LinEq1:  Iter=  3 NonCon=     1 RMS=1.17D-04 Max=1.11D-03 NDo=     1
 LinEq1:  Iter=  4 NonCon=     1 RMS=2.82D-05 Max=2.44D-04 NDo=     1
 LinEq1:  Iter=  5 NonCon=     1 RMS=6.97D-06 Max=6.21D-05 NDo=     1
 LinEq1:  Iter=  6 NonCon=     1 RMS=1.83D-06 Max=2.50D-05 NDo=     1
 LinEq1:  Iter=  7 NonCon=     1 RMS=4.69D-07 Max=5.03D-06 NDo=     1
 LinEq1:  Iter=  8 NonCon=     1 RMS=1.07D-07 Max=1.29D-06 NDo=     1
 LinEq1:  Iter=  9 NonCon=     1 RMS=2.08D-08 Max=1.56D-07 NDo=     1
 LinEq1:  Iter= 10 NonCon=     1 RMS=3.15D-09 Max=3.59D-08 NDo=     1
 LinEq1:  Iter= 11 NonCon=     1 RMS=7.97D-10 Max=1.54D-08 NDo=     1
 LinEq1:  Iter= 12 NonCon=     1 RMS=1.61D-10 Max=1.46D-09 NDo=     1
 LinEq1:  Iter= 13 NonCon=     0 RMS=3.18D-11 Max=2.07D-10 NDo=     1
 Linear equations converged to 1.000D-10 1.000D-09 after    13 iterations.
 End of Minotr F.D. properties file   721 does not exist.
 End of Minotr F.D. properties file   722 does not exist.
 End of Minotr F.D. properties file   788 does not exist.

 **********************************************************************

            Population analysis using the CC Density.

 **********************************************************************

 Alpha  occ. eigenvalues -- -104.84082 -80.00535 -26.31172 -10.60289  -8.07793
 Alpha  occ. eigenvalues --   -8.07423  -8.07350  -7.56919  -5.47290  -5.47134
 Alpha  occ. eigenvalues --   -5.46936  -1.58604  -1.14344  -0.84873  -0.70185
 Alpha  occ. eigenvalues --   -0.69619  -0.68172  -0.58274  -0.52244  -0.50591
 Alpha  occ. eigenvalues --   -0.28933
 Alpha virt. eigenvalues --    0.04816   0.16579   0.23042   0.36816   0.49723
 Alpha virt. eigenvalues --    0.64529   0.65809   0.71217   0.72049   0.76140
 Alpha virt. eigenvalues --    0.81042   0.90692   0.92946   0.96615   1.00666
 Alpha virt. eigenvalues --    1.03044   1.05601   1.14512   1.18019   1.21715
 Alpha virt. eigenvalues --    1.25253   1.51478   1.53655   1.54565   1.62879
 Alpha virt. eigenvalues --    1.77365   1.82419   2.02665   2.41985   3.43424
 Alpha virt. eigenvalues --    3.43674   3.49713   3.52131   3.89043
          Condensed to atoms (all electrons):
               1          2          3          4
     1  P   13.874829   0.188601   0.190178   0.331963
     2  F    0.188601   9.192011  -0.009584  -0.010745
     3  Cl   0.190178  -0.009584  16.967947  -0.013761
     4  H    0.331963  -0.010745  -0.013761   0.611909
 Mulliken charges:
               1
     1  P    0.414429
     2  F   -0.360283
     3  Cl  -0.134780
     4  H    0.080634
 Sum of Mulliken charges =  -0.00000
 Mulliken charges with hydrogens summed into heavy atoms:
               1
     1  P    0.495063
     2  F   -0.360283
     3  Cl  -0.134780
 Electronic spatial extent (au):  <R**2>=            328.8208
 Charge=             -0.0000 electrons
 Dipole moment (field-independent basis, Debye):
    X=              0.3745    Y=              1.7264    Z=              0.0002  Tot=              1.7665
 Quadrupole moment (field-independent basis, Debye-Ang):
   XX=            -31.0976   YY=            -27.8989   ZZ=            -32.7112
   XY=             -2.4836   XZ=             -0.0002   YZ=              0.0002
 Traceless Quadrupole moment (field-independent basis, Debye-Ang):
   XX=             -0.5283   YY=              2.6703   ZZ=             -2.1420
   XY=             -2.4836   XZ=             -0.0002   YZ=              0.0002
 Octapole moment (field-independent basis, Debye-Ang**2):
  XXX=             -0.6913  YYY=             -0.2683  ZZZ=              0.0005  XYY=             -3.1484
  XXY=              0.9304  XXZ=              0.0001  XZZ=             -1.2343  YZZ=             -3.5603
  YYZ=              0.0003  XYZ=             -0.0001
 Hexadecapole moment (field-independent basis, Debye-Ang**3):
 XXXX=           -265.8039 YYYY=            -67.0561 ZZZZ=            -39.2656 XXXY=             -1.9636
 XXXZ=             -0.0003 YYYX=              1.9536 YYYZ=              0.0004 ZZZX=             -0.0004
 ZZZY=              0.0003 XXYY=            -56.0831 XXZZ=            -52.8079 YYZZ=            -20.4868
 XXYZ=              0.0002 YYXZ=             -0.0002 ZZXY=              3.3319
 N-N= 1.484147262547D+02 E-N=-2.441406879736D+03  KE= 9.000856228098D+02
   1 Symmetry operations used in ECPInt.
 ECPInt:  NShTT=     325 NPrTT=    1493 LenC2=     321 LenP2D=    1199.
 LDataN:  DoStor=T MaxTD1= 5 Len=  102
 Calling FoFJK, ICntrl=  10002127 FMM=F ISym2X=0 I1Cent= 0 IOpClX= 0 NMat=1 NMatS=1 NMatT=0.
 -------------------------------------------------------------------
 Center     Atomic                   Forces (Hartrees/Bohr)
 Number     Number              X              Y              Z
 -------------------------------------------------------------------
      1       15           0.000625096    0.000017226   -0.000015632
      2        9          -0.000193591   -0.000202022    0.000004879
      3       17          -0.000318142    0.000056921    0.000004299
      4        1          -0.000113363    0.000127874    0.000006454
 -------------------------------------------------------------------
 Cartesian Forces:  Max     0.000625096 RMS     0.000224224
 NDeriv=     12 NFrqRd=  0 NDerD0=      0 MskFDP=       0 MskDFD=       0 MskDF0=       0
 Re-enter D2Numr:  atom      1 IXYZ=1 step-down number 1
 Standard basis: def2SVP (5D, 7F)
    55 basis functions,   106 primitive gaussians,    58 cartesian basis functions
    21 alpha electrons       21 beta electrons
       nuclear repulsion energy       148.3990672279 Hartrees.
 NAtoms=    4 NActive=    4 NUniq=    4 SFac= 1.00D+00 NAtFMM=   60 NAOKFM=F Big=F
 Integral buffers will be    131072 words long.
 Raffenetti 1 integral format.
 Two-electron integral symmetry is turned off.
 One-electron integrals computed using PRISM.
   1 Symmetry operations used in ECPInt.
 ECPInt:  NShTT=     325 NPrTT=    1493 LenC2=     321 LenP2D=    1199.
 LDataN:  DoStor=T MaxTD1= 4 Len=   56
 NBasis=    55 RedAO= T EigKep=  2.81D-02  NBF=    55
 NBsUse=    55 1.00D-06 EigRej= -1.00D+00 NBFU=    55
 Initial guess from the checkpoint file:  "/tmp/webmo-1487/48/Gau-1661.chk"
 B after Tr=     0.000000    0.000675    0.000000
         Rot=    1.000000   -0.000000    0.000000    0.000053 Ang=   0.01 deg.
 Keep R1 ints in memory in canonical form, NReq=2029988.
 Requested convergence on RMS density matrix=1.00D-08 within 128 cycles.
 Requested convergence on MAX density matrix=1.00D-06.
 Requested convergence on             energy=1.00D-06.
 No special actions if energy rises.
 SCF Done:  E(RHF) =  -899.820001669     A.U. after    8 cycles
            NFock=  8  Conv=0.49D-08     -V/T= 2.0002
 ExpMin= 1.05D-01 ExpMax= 1.04D+04 ExpMxC= 1.57D+03 IAcc=3 IRadAn=         5 AccDes= 0.00D+00
 HarFok:  IExCor=  205 AccDes= 0.00D+00 IRadAn=         5 IDoV=-2 UseB2=F ITyADJ=14
 ICtDFT= 12500011 ScaDFX=  1.000000  1.000000  1.000000  1.000000
 Range of M.O.s used for correlation:    12    55
 NBasis=    55 NAE=    21 NBE=    21 NFC=    11 NFV=     0
 NROrb=     44 NOA=    10 NOB=    10 NVA=    34 NVB=    34
 Semi-Direct transformation.
 ModeAB=           2 MOrb=            10 LenV=     104642659
 LASXX=       347920 LTotXX=      347920 LenRXX=      347920
 LTotAB=      372350 MaxLAS=      752840 LenRXY=      752840
 NonZer=      775720 LenScr=     1744896 LnRSAI=           0
 LnScr1=           0 LExtra=           0 Total=      2845656
 MaxDsk=          -1 SrtSym=           F ITran=            4
 JobTyp=0 Pass  1:  I=   1 to  10.
 (rs|ai) integrals will be sorted in core.
 Spin components of T(2) and E(2):
     alpha-alpha T2 =       0.1780209383D-01 E2=     -0.5729776252D-01
     alpha-beta  T2 =       0.1084247684D+00 E2=     -0.3271128954D+00
     beta-beta   T2 =       0.1780209383D-01 E2=     -0.5729776252D-01
 ANorm=    0.1069592893D+01
 E2 =    -0.4417084205D+00 EUMP2 =    -0.90026171008981D+03
 Keep R2 and R3 ints in memory in canonical form, NReq=3220043.
 CIDS: In Core Option IDoMem=           1.
 Iterations=  50 Convergence= 0.100D-07
 Produce multiple copies of IABC intergrals
 Iteration Nr.   1
 **********************
 DD1Dir will call FoFMem   1 times, MxPair=       110
 NAB=    55 NAA=     0 NBB=     0.
 MP4(R+Q)=  0.73428532D-02
 E3=       -0.24735720D-01        EUMP3=      -0.90028644581D+03
 E4(DQ)=   -0.38631527D-02        UMP4(DQ)=   -0.90029030896D+03
 E4(SDQ)=  -0.75051039D-02        UMP4(SDQ)=  -0.90029395091D+03
 DE(Corr)= -0.45882028     E(Corr)=     -900.27882195    
 NORM(A)=   0.10816864D+01
 Iteration Nr.   2
 **********************
 DD1Dir will call FoFMem   1 times, MxPair=       110
 NAB=    55 NAA=     0 NBB=     0.
 DE(Corr)= -0.47037944     E(CORR)=     -900.29038111     Delta=-1.16D-02
 NORM(A)=   0.10896875D+01
 Iteration Nr.   3
 **********************
 DD1Dir will call FoFMem   1 times, MxPair=       110
 NAB=    55 NAA=     0 NBB=     0.
 DE(Corr)= -0.47191347     E(CORR)=     -900.29191514     Delta=-1.53D-03
 NORM(A)=   0.10929150D+01
 Iteration Nr.   4
 **********************
 DD1Dir will call FoFMem   1 times, MxPair=       110
 NAB=    55 NAA=     0 NBB=     0.
 DE(Corr)= -0.47341031     E(CORR)=     -900.29341198     Delta=-1.50D-03
 NORM(A)=   0.10945801D+01
 Iteration Nr.   5
 **********************
 DD1Dir will call FoFMem   1 times, MxPair=       110
 NAB=    55 NAA=     0 NBB=     0.
 DE(Corr)= -0.47364136     E(CORR)=     -900.29364303     Delta=-2.31D-04
 NORM(A)=   0.10952787D+01
 Iteration Nr.   6
 **********************
 DD1Dir will call FoFMem   1 times, MxPair=       110
 NAB=    55 NAA=     0 NBB=     0.
 DE(Corr)= -0.47370218     E(CORR)=     -900.29370385     Delta=-6.08D-05
 NORM(A)=   0.10953950D+01
 Iteration Nr.   7
 **********************
 DD1Dir will call FoFMem   1 times, MxPair=       110
 NAB=    55 NAA=     0 NBB=     0.
 DE(Corr)= -0.47370862     E(CORR)=     -900.29371029     Delta=-6.45D-06
 NORM(A)=   0.10954150D+01
 Iteration Nr.   8
 **********************
 DD1Dir will call FoFMem   1 times, MxPair=       110
 NAB=    55 NAA=     0 NBB=     0.
 DE(Corr)= -0.47370516     E(CORR)=     -900.29370683     Delta= 3.46D-06
 NORM(A)=   0.10954194D+01
 Iteration Nr.   9
 **********************
 DD1Dir will call FoFMem   1 times, MxPair=       110
 NAB=    55 NAA=     0 NBB=     0.
 DE(Corr)= -0.47370837     E(CORR)=     -900.29371004     Delta=-3.21D-06
 NORM(A)=   0.10954210D+01
 Iteration Nr.  10
 **********************
 DD1Dir will call FoFMem   1 times, MxPair=       110
 NAB=    55 NAA=     0 NBB=     0.
 DE(Corr)= -0.47370858     E(CORR)=     -900.29371025     Delta=-2.05D-07
 NORM(A)=   0.10954222D+01
 Iteration Nr.  11
 **********************
 DD1Dir will call FoFMem   1 times, MxPair=       110
 NAB=    55 NAA=     0 NBB=     0.
 DE(Corr)= -0.47370942     E(CORR)=     -900.29371109     Delta=-8.45D-07
 NORM(A)=   0.10954233D+01
 Iteration Nr.  12
 **********************
 DD1Dir will call FoFMem   1 times, MxPair=       110
 NAB=    55 NAA=     0 NBB=     0.
 DE(Corr)= -0.47370959     E(CORR)=     -900.29371126     Delta=-1.67D-07
 NORM(A)=   0.10954241D+01
 Iteration Nr.  13
 **********************
 DD1Dir will call FoFMem   1 times, MxPair=       110
 NAB=    55 NAA=     0 NBB=     0.
 DE(Corr)= -0.47370974     E(CORR)=     -900.29371141     Delta=-1.48D-07
 NORM(A)=   0.10954247D+01
 Iteration Nr.  14
 **********************
 DD1Dir will call FoFMem   1 times, MxPair=       110
 NAB=    55 NAA=     0 NBB=     0.
 DE(Corr)= -0.47370980     E(CORR)=     -900.29371147     Delta=-5.75D-08
 NORM(A)=   0.10954249D+01
 Iteration Nr.  15
 **********************
 DD1Dir will call FoFMem   1 times, MxPair=       110
 NAB=    55 NAA=     0 NBB=     0.
 DE(Corr)= -0.47370982     E(CORR)=     -900.29371149     Delta=-2.52D-08
 NORM(A)=   0.10954250D+01
 Iteration Nr.  16
 **********************
 DD1Dir will call FoFMem   1 times, MxPair=       110
 NAB=    55 NAA=     0 NBB=     0.
 DE(Corr)= -0.47370984     E(CORR)=     -900.29371151     Delta=-1.53D-08
 NORM(A)=   0.10954251D+01
 Iteration Nr.  17
 **********************
 DD1Dir will call FoFMem   1 times, MxPair=       110
 NAB=    55 NAA=     0 NBB=     0.
 DE(Corr)= -0.47370984     E(CORR)=     -900.29371151     Delta=-1.94D-09
 NORM(A)=   0.10954251D+01
 Wavefunction amplitudes converged. E(Corr)=     -900.29371151    
 Dominant configurations:
 ***********************
 Spin Case        I    J    A    B          Value
   ABAB          21   21   22   22      -0.160921D+00
 Largest amplitude= 1.61D-01

 Z-amplitude iterations

 Iteration Nr.   1
 **********************
 DD1Dir will call FoFMem   1 times, MxPair=       110
 NAB=    55 NAA=     0 NBB=     0.
 DE(Z)= -0.46124032     E(Z)=     -900.28124199     Delta= 1.25D-02
 NORM(A)=   0.10954261D+01
 Iteration Nr.   2
 **********************
 DD1Dir will call FoFMem   1 times, MxPair=       110
 NAB=    55 NAA=     0 NBB=     0.
 DE(Z)= -0.46124061     E(Z)=     -900.28124228     Delta=-2.89D-07
 NORM(A)=   0.10954227D+01
 Iteration Nr.   3
 **********************
 DD1Dir will call FoFMem   1 times, MxPair=       110
 NAB=    55 NAA=     0 NBB=     0.
 DE(Z)= -0.46123982     E(Z)=     -900.28124148     Delta= 7.98D-07
 NORM(A)=   0.10954214D+01
 Iteration Nr.   4
 **********************
 DD1Dir will call FoFMem   1 times, MxPair=       110
 NAB=    55 NAA=     0 NBB=     0.
 DE(Z)= -0.46123949     E(Z)=     -900.28124116     Delta= 3.29D-07
 NORM(A)=   0.10954227D+01
 Iteration Nr.   5
 **********************
 DD1Dir will call FoFMem   1 times, MxPair=       110
 NAB=    55 NAA=     0 NBB=     0.
 DE(Z)= -0.46123979     E(Z)=     -900.28124146     Delta=-3.01D-07
 NORM(A)=   0.10862856D+01
 Iteration Nr.   6
 **********************
 DD1Dir will call FoFMem   1 times, MxPair=       110
 NAB=    55 NAA=     0 NBB=     0.
 DE(Z)= -0.45907461     E(Z)=     -900.27907628     Delta= 2.17D-03
 NORM(A)=   0.10862669D+01
 Iteration Nr.   7
 **********************
 DD1Dir will call FoFMem   1 times, MxPair=       110
 NAB=    55 NAA=     0 NBB=     0.
 DE(Z)= -0.45907935     E(Z)=     -900.27908102     Delta=-4.74D-06
 NORM(A)=   0.10862537D+01
 Iteration Nr.   8
 **********************
 DD1Dir will call FoFMem   1 times, MxPair=       110
 NAB=    55 NAA=     0 NBB=     0.
 DE(Z)= -0.45907965     E(Z)=     -900.27908132     Delta=-3.05D-07
 NORM(A)=   0.10862492D+01
 Iteration Nr.   9
 **********************
 DD1Dir will call FoFMem   1 times, MxPair=       110
 NAB=    55 NAA=     0 NBB=     0.
 DE(Z)= -0.45907964     E(Z)=     -900.27908131     Delta= 6.95D-09
 NORM(A)=   0.10862469D+01
 Iteration Nr.  10
 **********************
 DD1Dir will call FoFMem   1 times, MxPair=       110
 NAB=    55 NAA=     0 NBB=     0.
 DE(Z)= -0.45907946     E(Z)=     -900.27908113     Delta= 1.85D-07
 NORM(A)=   0.10862463D+01
 Iteration Nr.  11
 **********************
 DD1Dir will call FoFMem   1 times, MxPair=       110
 NAB=    55 NAA=     0 NBB=     0.
 DE(Z)= -0.45907934     E(Z)=     -900.27908101     Delta= 1.16D-07
 NORM(A)=   0.10862461D+01
 Iteration Nr.  12
 **********************
 DD1Dir will call FoFMem   1 times, MxPair=       110
 NAB=    55 NAA=     0 NBB=     0.
 DE(Z)= -0.45907937     E(Z)=     -900.27908104     Delta=-2.50D-08
 NORM(A)=   0.10862460D+01
 Iteration Nr.  13
 **********************
 DD1Dir will call FoFMem   1 times, MxPair=       110
 NAB=    55 NAA=     0 NBB=     0.
 DE(Z)= -0.45907935     E(Z)=     -900.27908102     Delta= 1.88D-08
 NORM(A)=   0.10862460D+01
 Iteration Nr.  14
 **********************
 DD1Dir will call FoFMem   1 times, MxPair=       110
 NAB=    55 NAA=     0 NBB=     0.
 DE(Z)= -0.45907935     E(Z)=     -900.27908102     Delta=-3.12D-09
 NORM(A)=   0.10862460D+01
 Z-amplitudes converged.
 Discarding MO integrals.
          IDoAtm=1111
          Differentiating once with respect to electric field.
                with respect to dipole field.
          Differentiating once with respect to nuclear coordinates.
 Keep R1 ints in memory in canonical form, NReq=2030974.
          There are     1 degrees of freedom in the 1st order CPHF.  IDoFFX=0 NUNeed=     1.
 LinEq1:  Iter=  0 NonCon=     1 RMS=4.55D-03 Max=3.99D-02 NDo=     1
 AX will form     1 AO Fock derivatives at one time.
 LinEq1:  Iter=  1 NonCon=     1 RMS=1.33D-03 Max=1.45D-02 NDo=     1
 LinEq1:  Iter=  2 NonCon=     1 RMS=3.99D-04 Max=2.96D-03 NDo=     1
 LinEq1:  Iter=  3 NonCon=     1 RMS=1.18D-04 Max=1.11D-03 NDo=     1
 LinEq1:  Iter=  4 NonCon=     1 RMS=2.83D-05 Max=2.44D-04 NDo=     1
 LinEq1:  Iter=  5 NonCon=     1 RMS=6.98D-06 Max=6.21D-05 NDo=     1
 LinEq1:  Iter=  6 NonCon=     1 RMS=1.83D-06 Max=2.50D-05 NDo=     1
 LinEq1:  Iter=  7 NonCon=     1 RMS=4.69D-07 Max=5.02D-06 NDo=     1
 LinEq1:  Iter=  8 NonCon=     1 RMS=1.07D-07 Max=1.29D-06 NDo=     1
 LinEq1:  Iter=  9 NonCon=     1 RMS=2.08D-08 Max=1.55D-07 NDo=     1
 LinEq1:  Iter= 10 NonCon=     1 RMS=3.15D-09 Max=3.57D-08 NDo=     1
 LinEq1:  Iter= 11 NonCon=     1 RMS=7.96D-10 Max=1.54D-08 NDo=     1
 LinEq1:  Iter= 12 NonCon=     1 RMS=1.61D-10 Max=1.46D-09 NDo=     1
 LinEq1:  Iter= 13 NonCon=     0 RMS=3.19D-11 Max=2.09D-10 NDo=     1
 Linear equations converged to 1.000D-10 1.000D-09 after    13 iterations.
 End of Minotr F.D. properties file   721 does not exist.
 End of Minotr F.D. properties file   722 does not exist.
 End of Minotr F.D. properties file   788 does not exist.

 **********************************************************************

            Population analysis using the CC Density.

 **********************************************************************

 Alpha  occ. eigenvalues -- -104.84094 -80.00538 -26.31143 -10.60302  -8.07806
 Alpha  occ. eigenvalues --   -8.07436  -8.07363  -7.56922  -5.47292  -5.47137
 Alpha  occ. eigenvalues --   -5.46939  -1.58535  -1.14368  -0.84862  -0.70147
 Alpha  occ. eigenvalues --   -0.69569  -0.68138  -0.58298  -0.52261  -0.50605
 Alpha  occ. eigenvalues --   -0.28944
 Alpha virt. eigenvalues --    0.04818   0.16554   0.23052   0.36796   0.49712
 Alpha virt. eigenvalues --    0.64510   0.65793   0.71211   0.72050   0.76120
 Alpha virt. eigenvalues --    0.81028   0.90715   0.92892   0.96598   1.00654
 Alpha virt. eigenvalues --    1.03023   1.05595   1.14521   1.18027   1.21719
 Alpha virt. eigenvalues --    1.25283   1.51480   1.53671   1.54577   1.62909
 Alpha virt. eigenvalues --    1.77390   1.82429   2.02705   2.42069   3.43466
 Alpha virt. eigenvalues --    3.43715   3.49706   3.52117   3.88883
          Condensed to atoms (all electrons):
               1          2          3          4
     1  P   13.874531   0.188566   0.190157   0.332046
     2  F    0.188566   9.192634  -0.009597  -0.010757
     3  Cl   0.190157  -0.009597  16.967628  -0.013749
     4  H    0.332046  -0.010757  -0.013749   0.611875
 Mulliken charges:
               1
     1  P    0.414700
     2  F   -0.360846
     3  Cl  -0.134440
     4  H    0.080585
 Sum of Mulliken charges =  -0.00000
 Mulliken charges with hydrogens summed into heavy atoms:
               1
     1  P    0.495285
     2  F   -0.360846
     3  Cl  -0.134440
 Electronic spatial extent (au):  <R**2>=            328.8192
 Charge=             -0.0000 electrons
 Dipole moment (field-independent basis, Debye):
    X=              0.3824    Y=              1.7303    Z=              0.0002  Tot=              1.7721
 Quadrupole moment (field-independent basis, Debye-Ang):
   XX=            -31.1033   YY=            -27.8963   ZZ=            -32.7096
   XY=             -2.4884   XZ=             -0.0002   YZ=              0.0002
 Traceless Quadrupole moment (field-independent basis, Debye-Ang):
   XX=             -0.5336   YY=              2.6735   ZZ=             -2.1398
   XY=             -2.4884   XZ=             -0.0002   YZ=              0.0002
 Octapole moment (field-independent basis, Debye-Ang**2):
  XXX=             -0.7028  YYY=             -0.2958  ZZZ=              0.0005  XYY=             -3.1551
  XXY=              0.9229  XXZ=              0.0001  XZZ=             -1.2449  YZZ=             -3.5716
  YYZ=              0.0003  XYZ=             -0.0001
 Hexadecapole moment (field-independent basis, Debye-Ang**3):
 XXXX=           -265.7664 YYYY=            -67.1119 ZZZZ=            -39.2599 XXXY=             -1.9797
 XXXZ=             -0.0003 YYYX=              1.9446 YYYZ=              0.0004 ZZZX=             -0.0003
 ZZZY=              0.0003 XXYY=            -56.0751 XXZZ=            -52.7950 YYZZ=            -20.4983
 XXYZ=              0.0002 YYXZ=             -0.0002 ZZXY=              3.3286
 N-N= 1.483990672279D+02 E-N=-2.441376123075D+03  KE= 9.000847695452D+02
   1 Symmetry operations used in ECPInt.
 ECPInt:  NShTT=     325 NPrTT=    1493 LenC2=     321 LenP2D=    1199.
 LDataN:  DoStor=T MaxTD1= 5 Len=  102
 Calling FoFJK, ICntrl=  10002127 FMM=F ISym2X=0 I1Cent= 0 IOpClX= 0 NMat=1 NMatS=1 NMatT=0.
 -------------------------------------------------------------------
 Center     Atomic                   Forces (Hartrees/Bohr)
 Number     Number              X              Y              Z
 -------------------------------------------------------------------
      1       15          -0.000193321   -0.000959600   -0.000015639
      2        9           0.000454417    0.000457229    0.000004859
      3       17          -0.000095076    0.000021754    0.000004304
      4        1          -0.000166019    0.000480616    0.000006475
 -------------------------------------------------------------------
 Cartesian Forces:  Max     0.000959600 RMS     0.000369927
 NDeriv=     12 NFrqRd=  0 NDerD0=      0 MskFDP=       0 MskDFD=       0 MskDF0=       0
 Re-enter D2Numr:  atom      1 IXYZ=2 step-up   number 1
 Standard basis: def2SVP (5D, 7F)
    55 basis functions,   106 primitive gaussians,    58 cartesian basis functions
    21 alpha electrons       21 beta electrons
       nuclear repulsion energy       148.4522604289 Hartrees.
 NAtoms=    4 NActive=    4 NUniq=    4 SFac= 1.00D+00 NAtFMM=   60 NAOKFM=F Big=F
 Integral buffers will be    131072 words long.
 Raffenetti 1 integral format.
 Two-electron integral symmetry is turned off.
 One-electron integrals computed using PRISM.
   1 Symmetry operations used in ECPInt.
 ECPInt:  NShTT=     325 NPrTT=    1493 LenC2=     321 LenP2D=    1199.
 LDataN:  DoStor=T MaxTD1= 4 Len=   56
 NBasis=    55 RedAO= T EigKep=  2.81D-02  NBF=    55
 NBsUse=    55 1.00D-06 EigRej= -1.00D+00 NBFU=    55
 Initial guess from the checkpoint file:  "/tmp/webmo-1487/48/Gau-1661.chk"
 B after Tr=    -0.000000   -0.000675   -0.000000
         Rot=    1.000000    0.000000    0.000000   -0.000053 Ang=  -0.01 deg.
 Keep R1 ints in memory in canonical form, NReq=2029988.
 Requested convergence on RMS density matrix=1.00D-08 within 128 cycles.
 Requested convergence on MAX density matrix=1.00D-06.
 Requested convergence on             energy=1.00D-06.
 No special actions if energy rises.
 SCF Done:  E(RHF) =  -899.820023818     A.U. after    8 cycles
            NFock=  8  Conv=0.49D-08     -V/T= 2.0002
 ExpMin= 1.05D-01 ExpMax= 1.04D+04 ExpMxC= 1.57D+03 IAcc=3 IRadAn=         5 AccDes= 0.00D+00
 HarFok:  IExCor=  205 AccDes= 0.00D+00 IRadAn=         5 IDoV=-2 UseB2=F ITyADJ=14
 ICtDFT= 12500011 ScaDFX=  1.000000  1.000000  1.000000  1.000000
 Range of M.O.s used for correlation:    12    55
 NBasis=    55 NAE=    21 NBE=    21 NFC=    11 NFV=     0
 NROrb=     44 NOA=    10 NOB=    10 NVA=    34 NVB=    34
 Semi-Direct transformation.
 ModeAB=           2 MOrb=            10 LenV=     104642659
 LASXX=       347920 LTotXX=      347920 LenRXX=      347920
 LTotAB=      372350 MaxLAS=      752840 LenRXY=      752840
 NonZer=      775720 LenScr=     1744896 LnRSAI=           0
 LnScr1=           0 LExtra=           0 Total=      2845656
 MaxDsk=          -1 SrtSym=           F ITran=            4
 JobTyp=0 Pass  1:  I=   1 to  10.
 (rs|ai) integrals will be sorted in core.
 Spin components of T(2) and E(2):
     alpha-alpha T2 =       0.1779987810D-01 E2=     -0.5729789223D-01
     alpha-beta  T2 =       0.1084128686D+00 E2=     -0.3270864861D+00
     beta-beta   T2 =       0.1779987810D-01 E2=     -0.5729789223D-01
 ANorm=    0.1069585258D+01
 E2 =    -0.4416822705D+00 EUMP2 =    -0.90026170608839D+03
 Keep R2 and R3 ints in memory in canonical form, NReq=3220043.
 CIDS: In Core Option IDoMem=           1.
 Iterations=  50 Convergence= 0.100D-07
 Produce multiple copies of IABC intergrals
 Iteration Nr.   1
 **********************
 DD1Dir will call FoFMem   1 times, MxPair=       110
 NAB=    55 NAA=     0 NBB=     0.
 MP4(R+Q)=  0.73413263D-02
 E3=       -0.24740082D-01        EUMP3=      -0.90028644617D+03
 E4(DQ)=   -0.38624997D-02        UMP4(DQ)=   -0.90029030867D+03
 E4(SDQ)=  -0.74999646D-02        UMP4(SDQ)=  -0.90029394613D+03
 DE(Corr)= -0.45880048     E(Corr)=     -900.27882429    
 NORM(A)=   0.10816844D+01
 Iteration Nr.   2
 **********************
[...]
 DE(Z)= -0.45906776     E(Z)=     -900.27908152     Delta=-2.53D-07
 NORM(A)=   0.10862522D+01
 Iteration Nr.  10
 **********************
 DD1Dir will call FoFMem   1 times, MxPair=       110
 NAB=    55 NAA=     0 NBB=     0.
 DE(Z)= -0.45906742     E(Z)=     -900.27908119     Delta= 3.37D-07
 NORM(A)=   0.10862519D+01
 Iteration Nr.  11
 **********************
 DD1Dir will call FoFMem   1 times, MxPair=       110
 NAB=    55 NAA=     0 NBB=     0.
 DE(Z)= -0.45906746     E(Z)=     -900.27908122     Delta=-3.27D-08
 NORM(A)=   0.10862518D+01
 Iteration Nr.  12
 **********************
 DD1Dir will call FoFMem   1 times, MxPair=       110
 NAB=    55 NAA=     0 NBB=     0.
 DE(Z)= -0.45906745     E(Z)=     -900.27908122     Delta= 3.92D-09
 NORM(A)=   0.10862518D+01
 Z-amplitudes converged.
 Discarding MO integrals.
          IDoAtm=1111
          Differentiating once with respect to electric field.
                with respect to dipole field.
          Differentiating once with respect to nuclear coordinates.
 Keep R1 ints in memory in canonical form, NReq=2030974.
          There are     1 degrees of freedom in the 1st order CPHF.  IDoFFX=0 NUNeed=     1.
 LinEq1:  Iter=  0 NonCon=     1 RMS=4.55D-03 Max=3.98D-02 NDo=     1
 AX will form     1 AO Fock derivatives at one time.
 LinEq1:  Iter=  1 NonCon=     1 RMS=1.33D-03 Max=1.45D-02 NDo=     1
 LinEq1:  Iter=  2 NonCon=     1 RMS=3.99D-04 Max=2.96D-03 NDo=     1
 LinEq1:  Iter=  3 NonCon=     1 RMS=1.18D-04 Max=1.11D-03 NDo=     1
 LinEq1:  Iter=  4 NonCon=     1 RMS=2.83D-05 Max=2.44D-04 NDo=     1
 LinEq1:  Iter=  5 NonCon=     1 RMS=7.00D-06 Max=6.20D-05 NDo=     1
 LinEq1:  Iter=  6 NonCon=     1 RMS=1.85D-06 Max=2.48D-05 NDo=     1
 LinEq1:  Iter=  7 NonCon=     1 RMS=5.06D-07 Max=4.68D-06 NDo=     1
 LinEq1:  Iter=  8 NonCon=     1 RMS=1.36D-07 Max=1.90D-06 NDo=     1
 LinEq1:  Iter=  9 NonCon=     1 RMS=3.27D-08 Max=4.52D-07 NDo=     1
 LinEq1:  Iter= 10 NonCon=     1 RMS=8.04D-09 Max=8.36D-08 NDo=     1
 LinEq1:  Iter= 11 NonCon=     1 RMS=1.48D-09 Max=1.16D-08 NDo=     1
 LinEq1:  Iter= 12 NonCon=     1 RMS=1.74D-10 Max=1.14D-09 NDo=     1
 LinEq1:  Iter= 13 NonCon=     0 RMS=3.27D-11 Max=2.13D-10 NDo=     1
 Linear equations converged to 1.000D-10 1.000D-09 after    13 iterations.
 End of Minotr F.D. properties file   721 does not exist.
 End of Minotr F.D. properties file   722 does not exist.
 End of Minotr F.D. properties file   788 does not exist.

 **********************************************************************

            Population analysis using the CC Density.

 **********************************************************************

 Alpha  occ. eigenvalues -- -104.84091 -80.00533 -26.31153 -10.60300  -8.07804
 Alpha  occ. eigenvalues --   -8.07434  -8.07361  -7.56917  -5.47288  -5.47132
 Alpha  occ. eigenvalues --   -5.46934  -1.58566  -1.14372  -0.84857  -0.70159
 Alpha  occ. eigenvalues --   -0.69590  -0.68151  -0.58291  -0.52262  -0.50605
 Alpha  occ. eigenvalues --   -0.28932
 Alpha virt. eigenvalues --    0.04822   0.16578   0.23046   0.36808   0.49719
 Alpha virt. eigenvalues --    0.64513   0.65799   0.71218   0.72053   0.76131
 Alpha virt. eigenvalues --    0.81027   0.90709   0.92907   0.96581   1.00656
 Alpha virt. eigenvalues --    1.03033   1.05602   1.14508   1.18047   1.21729
 Alpha virt. eigenvalues --    1.25271   1.51484   1.53665   1.54578   1.62909
 Alpha virt. eigenvalues --    1.77357   1.82411   2.02689   2.41956   3.43448
 Alpha virt. eigenvalues --    3.43698   3.49713   3.52122   3.88965
          Condensed to atoms (all electrons):
               1          2          3          4
     1  P   13.875017   0.188573   0.190068   0.331962
     2  F    0.188573   9.192373  -0.009587  -0.010759
     3  Cl   0.190068  -0.009587  16.967732  -0.013759
     4  H    0.331962  -0.010759  -0.013759   0.611882
 Mulliken charges:
               1
     1  P    0.414381
     2  F   -0.360601
     3  Cl  -0.134454
     4  H    0.080674
 Sum of Mulliken charges =  -0.00000
 Mulliken charges with hydrogens summed into heavy atoms:
               1
     1  P    0.495054
     2  F   -0.360601
     3  Cl  -0.134454
 Electronic spatial extent (au):  <R**2>=            328.7679
 Charge=             -0.0000 electrons
 Dipole moment (field-independent basis, Debye):
    X=              0.3811    Y=              1.7270    Z=             -0.0028  Tot=              1.7686
 Quadrupole moment (field-independent basis, Debye-Ang):
   XX=            -31.1018   YY=            -27.8982   ZZ=            -32.7103
   XY=             -2.4849   XZ=              0.0024   YZ=             -0.0034
 Traceless Quadrupole moment (field-independent basis, Debye-Ang):
   XX=             -0.5317   YY=              2.6719   ZZ=             -2.1402
   XY=             -2.4849   XZ=              0.0024   YZ=             -0.0034
 Octapole moment (field-independent basis, Debye-Ang**2):
  XXX=             -0.7053  YYY=             -0.2682  ZZZ=             -0.0014  XYY=             -3.1559
  XXY=              0.9323  XXZ=             -0.0001  XZZ=             -1.2447  YZZ=             -3.5600
  YYZ=             -0.0034  XYZ=              0.0018
 Hexadecapole moment (field-independent basis, Debye-Ang**3):
 XXXX=           -265.7545 YYYY=            -67.0593 ZZZZ=            -39.2629 XXXY=             -1.9813
 XXXZ=              0.0024 YYYX=              1.9320 YYYZ=             -0.0037 ZZZX=              0.0007
 ZZZY=              0.0009 XXYY=            -56.0697 XXZZ=            -52.7944 YYZZ=            -20.4869
 XXYZ=             -0.0018 YYXZ=              0.0026 ZZXY=              3.3241
 N-N= 1.484256608068D+02 E-N=-2.441429124998D+03  KE= 9.000855300259D+02
   1 Symmetry operations used in ECPInt.
 ECPInt:  NShTT=     325 NPrTT=    1493 LenC2=     321 LenP2D=    1199.
 LDataN:  DoStor=T MaxTD1= 5 Len=  102
 Calling FoFJK, ICntrl=  10002127 FMM=F ISym2X=0 I1Cent= 0 IOpClX= 0 NMat=1 NMatS=1 NMatT=0.
 -------------------------------------------------------------------
 Center     Atomic                   Forces (Hartrees/Bohr)
 Number     Number              X              Y              Z
 -------------------------------------------------------------------
      1       15          -0.000165113   -0.000012939    0.000177288
      2        9           0.000146244    0.000087258   -0.000055267
      3       17           0.000041907   -0.000068024   -0.000048871
      4        1          -0.000023038   -0.000006294   -0.000073150
 -------------------------------------------------------------------
 Cartesian Forces:  Max     0.000177288 RMS     0.000093812
 NDeriv=     12 NFrqRd=  0 NDerD0=      0 MskFDP=       0 MskDFD=       0 MskDF0=       0
 Re-enter D2Numr:  atom      4 IXYZ=3 step-down number 1
 Maximum difference in off-diagonal FC elements:
 I=  4 J=  2 Difference=    1.4555022036D-05
 Max difference between analytic and numerical forces:
 I=  3 Difference=    3.0861137015D-06
 Full mass-weighted force constant matrix:
 Low frequencies ----1167.5088   -6.1467   -0.3702   -0.0582    0.0049    3.0487
 Low frequencies ---    9.9137  236.4997  583.5809
 ******    1 imaginary frequencies (negative Signs) ****** 
 Diagonal vibrational polarizability:
        6.1314796       4.4404713       8.2568835
 Harmonic frequencies (cm**-1), IR intensities (KM/Mole), Raman scattering
 activities (A**4/AMU), depolarization ratios for plane and unpolarized
 incident light, reduced masses (AMU), force constants (mDyne/A),
 and normal coordinates:
                      1                      2                      3
                      A                      A                      A
 Frequencies --  -1167.5088               236.4996               583.5809
 Red. masses --      1.2338                19.4946                14.3178
 Frc consts  --      0.9909                 0.6424                 2.8729
 IR Inten    --    418.2186                 7.9117                19.9484
  Atom  AN      X      Y      Z        X      Y      Z        X      Y      Z
     1  15    -0.00   0.00  -0.08    -0.04   0.39  -0.00    -0.36   0.27  -0.00
     2   9     0.00  -0.00   0.04     0.66  -0.28   0.00    -0.11  -0.14   0.00
     3  17     0.00  -0.00   0.02    -0.32  -0.20   0.00     0.41  -0.17   0.00
     4   1    -0.00  -0.00   1.00    -0.33   0.29  -0.00    -0.73   0.20  -0.00
                      4                      5                      6
                      A                      A                      A
 Frequencies --    828.0939               903.3800              2736.9086
 Red. masses --      1.1464                10.0738                 1.0422
 Frc consts  --      0.4632                 4.8438                 4.5995
 IR Inten    --     25.5275               125.8173                10.6568
  Atom  AN      X      Y      Z        X      Y      Z        X      Y      Z
     1  15    -0.01   0.03  -0.00     0.31   0.21  -0.00     0.01  -0.03  -0.00
     2   9    -0.03  -0.07  -0.00    -0.38  -0.36   0.00     0.00   0.00  -0.00
     3  17     0.00   0.01   0.00    -0.04   0.01  -0.00    -0.00   0.00  -0.00
     4   1     0.94   0.32   0.00    -0.76  -0.09  -0.00    -0.29   0.96   0.00

 -------------------
 - Thermochemistry -
 -------------------
 Temperature   298.150 Kelvin.  Pressure   1.00000 Atm.
 Atom     1 has atomic number 15 and mass  30.97376
 Atom     2 has atomic number  9 and mass  18.99840
 Atom     3 has atomic number 17 and mass  34.96885
 Atom     4 has atomic number  1 and mass   1.00783
 Molecular mass:    85.94884 amu.
 Principal axes and moments of inertia in atomic units:
                           1         2         3
     Eigenvalues --    71.11617 455.13395 526.25012
           X            0.99979  -0.02070  -0.00000
           Y            0.02070   0.99979   0.00001
           Z            0.00000  -0.00001   1.00000
 This molecule is an asymmetric top.
 Rotational symmetry number  1.
 Rotational temperatures (Kelvin)      1.21792     0.19030     0.16459
 Rotational constants (GHZ):          25.37737     3.96530     3.42944
    1 imaginary frequencies ignored.
 Zero-point vibrational energy      31632.0 (Joules/Mol)
                                    7.56024 (Kcal/Mol)
 Warning -- explicit consideration of   2 degrees of freedom as
           vibrations may cause significant error
 Vibrational temperatures:    340.27   839.64  1191.44  1299.76  3937.80
          (Kelvin)
 
 Zero-point correction=                           0.012048 (Hartree/Particle)
 Thermal correction to Energy=                    0.015680
 Thermal correction to Enthalpy=                  0.016624
 Thermal correction to Gibbs Free Energy=        -0.014851
 Sum of electronic and zero-point Energies=           -900.281664
 Sum of electronic and thermal Energies=              -900.278033
 Sum of electronic and thermal Enthalpies=            -900.277089
 Sum of electronic and thermal Free Energies=         -900.308564
 
                     E (Thermal)             CV                S
                      KCal/Mol        Cal/Mol-Kelvin    Cal/Mol-Kelvin
 Total                    9.839              9.915             66.245
 Electronic               0.000              0.000              0.000
 Translational            0.889              2.981             39.267
 Rotational               0.889              2.981             24.347
 Vibrational              8.062              3.953              2.631
 Vibration     1          0.655              1.785              1.829
 Vibration     2          0.940              1.067              0.479
                       Q            Log10(Q)             Ln(Q)
 Total Bot       0.677919D+07          6.831177         15.729367
 Total V=0       0.235977D+13         12.372870         28.489586
 Vib (Bot)       0.463306D-05         -5.334132        -12.282293
 Vib (Bot)    1  0.830409D+00         -0.080708         -0.185837
 Vib (Bot)    2  0.260178D+00         -0.584729         -1.346388
 Vib (V=0)       0.161273D+01          0.207561          0.477926
 Vib (V=0)    1  0.146932D+01          0.167116          0.384799
 Vib (V=0)    2  0.106364D+01          0.026796          0.061699
 Electronic      0.100000D+01          0.000000          0.000000
 Translational   0.313194D+08          7.495814         17.259749
 Rotational      0.467192D+05          4.669496         10.751911
 ***** Axes restored to original set *****
 -------------------------------------------------------------------
 Center     Atomic                   Forces (Hartrees/Bohr)
 Number     Number              X              Y              Z
 -------------------------------------------------------------------
      1       15          -0.000107541   -0.000015668    0.000125880
      2        9           0.000041879    0.000004886   -0.000165074
      3       17           0.000077672    0.000004319    0.000018552
      4        1          -0.000012010    0.000006463    0.000020642
 -------------------------------------------------------------------
 Cartesian Forces:  Max     0.000165074 RMS     0.000072853
 -----------------------------------------------------------------------------------------------
                       Internal Coordinate Forces (Hartree/Bohr or radian)
  Cent   Atom   N1       Length/X         N2         Alpha/Y        N3         Beta/Z          J
 -----------------------------------------------------------------------------------------------
      1  P 
      2  F        1  -0.000165(     1)
      3  Cl       1   0.000062(     2)      2  -0.000190(     4)
      4  H        1   0.000001(     3)      2  -0.000062(     5)      3   0.000015(     6)     0
 -----------------------------------------------------------------------------------------------
 Internal  Forces:  Max     0.000189744 RMS     0.000108925

 GradGradGradGradGradGradGradGradGradGradGradGradGradGradGradGradGradGrad
 Berny optimization.
 Search for a local minimum.
 Step number   1 out of a maximum of    2
 All quantities printed in internal units (Hartrees-Bohrs-Radians)
 Second derivative matrix not updated -- analytic derivatives used.
 The second derivative matrix:
                          B1        B2        B3        A1        A2
           B1           0.35524
           B2           0.00598   0.22578
           B3          -0.00413  -0.00566   0.27621
           A1           0.01115  -0.00092  -0.00178   0.19851
           A2           0.01783  -0.01353   0.00206   0.07146   0.16828
           D1          -0.00000  -0.00000  -0.00001   0.00002   0.00003
                          D1
           D1          -0.22115
 ITU=  0
     Eigenvalues ---   -0.22115   0.10924   0.22259   0.25575   0.27683
     Eigenvalues ---    0.35960
 Eigenvalue     1 is  -2.21D-01 should be greater than     0.000000 Eigenvector:
                          D1        A2        A1        B3        B2
   1                    1.00000  -0.00006  -0.00005   0.00002   0.00001
                          B1
   1                    0.00000
 Angle between quadratic step and forces=  24.96 degrees.
 Linear search not attempted -- first point.
 Variable       Old X    -DE/DX   Delta X   Delta X   Delta X     New X
                                 (Linear)    (Quad)   (Total)
    B1        3.05181  -0.00017   0.00000  -0.00044  -0.00044   3.05137
    B2        3.79436   0.00006   0.00000   0.00029   0.00029   3.79465
    B3        2.59628   0.00000   0.00000  -0.00000  -0.00000   2.59628
    A1        2.01301  -0.00019   0.00000  -0.00097  -0.00097   2.01204
    A2        2.06016  -0.00006   0.00000   0.00011   0.00011   2.06028
    D1       -3.14153   0.00001   0.00000   0.00007   0.00007  -3.14146
         Item               Value     Threshold  Converged?
 Maximum Force            0.000190     0.000450     YES
 RMS     Force            0.000109     0.000300     YES
 Maximum Displacement     0.000971     0.001800     YES
 RMS     Displacement     0.000455     0.001200     YES
 Predicted change in Energy=-1.357980D-07
 Optimization completed.
    -- Stationary point found.
                       ----------------------------
                       !   Optimized Parameters   !
                       ! (Angstroms and Degrees)  !
 ----------------------                            ----------------------
 !      Name          Value   Derivative information (Atomic Units)     !
 ------------------------------------------------------------------------
 !       B1          1.615    -DE/DX =   -0.0002                        !
 !       B2          2.0079   -DE/DX =    0.0001                        !
 !       B3          1.3739   -DE/DX =    0.0                           !
 !       A1        115.337    -DE/DX =   -0.0002                        !
 !       A2        118.0387   -DE/DX =   -0.0001                        !
 !       D1       -179.9962   -DE/DX =    0.0                           !
 ------------------------------------------------------------------------
 GradGradGradGradGradGradGradGradGradGradGradGradGradGradGradGradGradGrad

 Unable to Open any file for archive entry.
 1\1\GINC-LAPTOP-P4FAIH0F\Freq\RCCSD-FC\def2SVP\Cl1F1H1P1\RKDQL\25-Jan-
 2024\1\\#N CCSD/def2SVP FREQ Geom=Connectivity\\TS_freq\\0,1\P\F,1,B1\
 Cl,1,B2,2,A1\H,1,B3,2,A2,3,D1,0\\B1=1.61495088\B2=2.00788758\B3=1.3738
 9476\A1=115.3370299\A2=118.0387382\D1=-179.9961763\\Version=ES64L-G16R
 evC.01\State=1-A\HF=-899.8200137\MP2=-900.261709\MP3=-900.2864469\MP4D
 =-900.2976518\MP4DQ=-900.2903097\MP4SDQ=-900.2939494\CCSD=-900.2937124
 \RMSD=7.765e-09\RMSF=7.285e-05\ZeroPoint=0.012048\Thermal=0.0156795\ET
 ot=-900.2780329\HTot=-900.2770887\GTot=-900.3085639\Dipole=-0.3737692,
 0.0000957,-0.5868955\DipoleDeriv=0.8319282,-0.0000405,-0.2764063,-0.00
 00548,-1.1545626,-0.0001159,-0.4115441,-0.0000081,1.2418202,-0.4209859
 ,0.0000155,0.0403179,0.0000177,0.221585,-0.0000167,0.1180057,0.0000098
 ,-0.9497191,-0.4428104,0.0000268,0.1251398,0.000003,0.3084052,0.000028
 8,0.1145397,0.,-0.2199695,0.0317633,-0.0000048,0.1109508,0.0000086,0.6
 24638,0.000007,0.1790224,-0.0000008,-0.0720704\PG=C01 [X(Cl1F1H1P1)]\N
 Imag=1\\0.44379145,-0.00002222,-0.24740795,0.04103006,-0.00000898,0.47
 504262,-0.02969614,0.00000340,-0.00250306,0.02409644,0.00000241,0.0770
 9210,-0.00000384,-0.00000123,-0.02399043,-0.01322618,0.00000245,-0.345
 90623,0.00220122,0.00000076,0.35524447,-0.18877244,0.00000660,0.068476
 31,0.00096716,-0.00000139,0.00415151,0.18714891,-0.00000067,0.06824220
 ,0.00000220,-0.00000005,-0.02127646,-0.00000091,-0.00000104,-0.0188262
 1,0.07469617,-0.00000016,-0.04965920,0.01168411,0.00000091,-0.00521574
 ,-0.08183592,-0.00000051,0.05239917,-0.22533202,0.00001190,-0.10700421
 ,0.00463413,0.00000034,0.00687202,0.00066056,0.00000186,-0.00454338,0.
 22004068,0.00001933,0.10208250,0.00001176,-0.00000136,-0.03182640,-0.0
 0000094,-0.00000267,-0.02814188,-0.00000143,-0.00001519,-0.04211956,-0
 .10250039,0.00000681,-0.07948463,-0.01138064,0.00000214,-0.00412290,0.
 00920631,-0.00000082,0.00248127,0.10467609,-0.00000944,0.08112862\\0.0
 0010754,0.00001567,-0.00012588,-0.00004188,-0.00000489,0.00016507,-0.0
 0007767,-0.00000432,-0.00001855,0.00001201,-0.00000646,-0.00002064\\\@
 The archive entry for this job was punched.


 I CLAIM NOT TO HAVE CONTROLLED EVENTS,
 BUT CONFESS PLAINLY THAT EVENTS HAVE CONTROLLED ME.

                                         A. LINCOLN
 Job cpu time:       0 days  0 hours  8 minutes  4.4 seconds.
 Elapsed time:       0 days  0 hours  9 minutes 22.1 seconds.
 File lengths (MBytes):  RWF=    140 Int=      0 D2E=      0 Chk=     38 Scr=      1
 Normal termination of Gaussian 16 at Thu Jan 25 06:49:55 2024.