----- GAMESS execution script 'rungms' -----
This job is running on host w012
under operating system Linux at Mon Dec 25 14:31:25 CST 2023
Available scratch disk space (Kbyte units) at beginning of the job is
Filesystem              1K-blocks    Used Available Use% Mounted on
/dev/mapper/system-root 932514944 2686444 929828500   1% /
GAMESS temporary binary files will be written to /job_dir/1_1685743
GAMESS supplementary output files will be written to /job_dir/1_1685743
Copying input file ./1.inp to your run's scratch directory...
 
Assuming a single but multicore node.
 

 Distributed Data Interface kickoff program.
 Initiating 16 compute processes on 1 nodes to run the following command:
 /share/apps/xeda-apps/xeda-td/gamess.00.x 1 

          *******************************************************
          *                                                     *
          *          GAMESS VERSION = 30 SEP 2020 (R2)          *
          *                                                     *
          *              doi.org/10.1063/5.0005188              *
          *                                                     *
          **************** 64 BIT LINUX VERSION *****************

  GAMESS HAS BEEN MADE POSSIBLE WITH IMPORTANT CONTRIBUTIONS FROM
  THE FOLLOWING INDIVIDUALS (IN ALPHABETICAL ORDER):

     IVANA ADAMOVIC, CHRISTINE AIKENS, TOMOKO AKAMA,
     YURI ALEXEEV, YURIKO AOKI, POOJA ARORA, TOSHIO ASADA,
     ANDREY ASADCHEV, KIM K. BALDRIDGE, PRADIPTA BANDYOPADHYAY,
     MARIA BARYSZ, ROB BELL, JONATHAN BENTZ, COLLEEN BERTONI,
     JERRY A. BOATZ, BRETT BODE, KURT BRORSEN, KURT R. BRORSEN,
     LAIMUTIS BYTAUTAS, CALEB CARLIN, LAURA CARRINGTON,
     GALINA CHABAN, BENOIT CHAMPAGNE, WEI CHEN, MAHITO CHIBA,
     DAN CHIPMAN, CHEOL HO CHOI, TANNER CULPITT,
     DIPAYAN DATTA, PAUL DAY, ALBERT DEFUSCO,
     NUWAN DESILVA, J. EMILIANO DEUSTUA,
     TIM DUDLEY, MICHEL DUPUIS, STEVEN T. ELBERT,
     DMITRI FEDOROV, ALEX FINDLATER, GRAHAM FLETCHER,
     MARK FREITAG, CHRISTIAN FRIEDL, DAVID GARMER,
     IGOR S. GERASIMOV, KURT GLAESEMANN, MARK S. GORDON,
     JEFFREY GOUR, FENG LONG GU, EMILIE B. GUIDEZ,
     ANASTASIA GUNINA, SHARON HAMMES-SCHIFFER, MASATAKE HARUTA,
     KIMIHIKO HIRAO, YASUHIRO IKABATA, TZVETELIN IORDANOV,
     STEPHAN IRLE, KAZUYA ISHIMURA, JOE IVANIC, FRANK JENSEN,
     JAN H. JENSEN, VISVALDAS KAIRYS, MUNEAKI KAMIYA,
     MICHIO KATOUDA, NAOAKI KAWAKAMI, DAN KEMP, BERNARD KIRTMAN,
     KAZUO KITAURA, MARIUSZ KLOBUKOWSKI, MASATO KOBAYASHI,
     PRAKASHAN KORAMBATH, JACEK KORCHOWIEC, SHIRO KOSEKI,
     KAROL KOWALSKI, JIMMY KROMANN, STANISLAW KUCHARSKI,
     HENRY KURTZ, SAROM SOK LEANG, HUI LI, SHUHUA LI, WEI LI,
     JESSE LUTZ, ALEKSANDR O. LYKHIN, MARCIN MAKOWSKI,
     JOANI MATO, NIKITA MATSUNAGA, BENEDETTA MENNUCCI,
     GRANT MERRILL, NORIYUKI MINEZAWA, VLADIMIR MIRONOV,
     EISAKU MIYOSHI, JOHN A. MONTGOMERY JR., HIROTOSHI MORI,
     JONATHAN MULLIN, MONIKA MUSIAL, SHIGERU NAGASE,
     TAKESHI NAGATA, HIROMI NAKAI, TAKAHITO NAKAJIMA,
     YUYA NAKAJIMA, HARUYUKI NAKANO, HIROYA NAKATA, SEAN NEDD,
     HEATHER NETZLOFF, KIET A. NGUYEN, YOSHIO NISHIMOTO,
     BOSILJKA NJEGIC, RYAN OLSON, MIKE PAK, ROBERTO PEVERATI,
     BUU PHAM, PIOTR PIECUCH, ANNA POMOGAEVA, DAVID POOLE,
     SPENCER PRUITT, OLIVIER QUINET, LUKE ROSKOP,
     KLAUS RUEDENBERG, ANDREW SAND, TOSAPORN SATTASATHUCHANA,
     NOZOMI SAWADA, MICHAEL W. SCHMIDT, PATRICK E. SCHNEIDER,
     JUNJI SEINO, PRACHI SHARMA, JUN SHEN, JIM SHOEMAKER,
     YINAN SHU, DEJUN SI, JONATHAN SKONE, LYUDMILA SLIPCHENKO,
     TONY SMITH, JIE SONG, MARK SPACKMAN, CASPER STEINMANN,
     WALT STEVENS, PEIFENG SU, SHUJUN SU, CHET SWALINA,
     TETSUYA TAKETSUGU, ZHEN TAO, NANDUN THELLAMUREGE
     SEIKEN TOKURA, JACOPO TOMASI, TSUGUKI TOUMA, TAKAO TSUNEDA,
     HIROAKI UMEDA, JORGE LUIS GALVEZ VALLEJO, YALI WANG,
     SIMON WEBB, AARON WEST, THERESA L. WINDUS, MARTA WLOCH,
     PENG XU, KIYOSHI YAGI, SUSUMU YANAGISAWA, YANG YANG,
     SOOHAENG YOO, TAKESHI YOSHIKAWA, FEDERICO ZAHARIEV,
     TOBY ZENG

  WHO ARE SUPPORTED BY THEIR INSTITUTION/UNIVERSITY/COMPANY/GROUP
  (IN ALPHABETICAL ORDER):

     EP ANALYTICS, FACULTES UNIVERSITAIRES NOTRE-DAME DE LA PAIX,
     INSTITUTE FOR MOLECULAR SCIENCE, IOWA STATE UNIVERSITY,
     JACKSON STATE UNIVERSITY, JOHANNES KEPLER UNIVERSITY LINZ,
     KYUSHU UNIVERSITY, MICHIGAN STATE UNIVERSITY,
     MIE UNIVERSITY, MOSCOW STATE UNIVERSITY,
     N. COPERNICUS UNIVERSITY, NAGOYA UNIVERSITY,
     NANJING UNIVERSITY, NAT. INST. OF ADVANCED INDUSTRIAL
     SCIENCE AND TECHNOLOGY, NATIONAL INST. OF STANDARDS AND
     TECHNOLOGY, NESMEYANOV INSTITUTE OF ORGANOELEMENT COMPOUNDS
     OF RUSSIAN ACADEMY OF SCIENCES, OSAKA PREFECTURE UNIVERSITY,
     PENNSYLVANIA STATE UNIVERSITY, TOKYO INSTITUTE OF TECHNOLOGY,
     UNIVERSITY OF AARHUS, UNIVERSITY OF ALBERTA,
     UNIVERSITY OF CALIFORNIA AT SANTA BARBARA,
     UNIVERSITY OF COPENHAGEN, UNIVERSITY OF IOWA,
     UNIVERSITY OF MEMPHIS, UNIVERSITY OF MINNESOTA,
     UNIVERSITY OF NEBRASKA, UNIVERSITY OF NEW ENGLAND,
     UNIVERSITY OF NOTRE DAME, UNIVERSITY OF PISA,
     UNIVERSITY OF SILESIA, UNIVERSITY OF TOKYO,
     UNIVERSITY OF ZURICH, WASEDA UNIVERSITY, YALE UNIVERSITY

  GAMESS SOFTWARE MANAGEMENT TEAM FOR THIS RELEASE:
     MARK S. GORDON (TEAM LEAD),
     BRETT BODE (SENIOR ADVISOR),
     GIUSEPPE BARCA,
     COLLEEN BERTONI,
     KRISTOPHER KEIPERT (ADVISOR),
     SAROM S. LEANG (DEVELOPMENT LEAD),
     BUU PHAM,
     JORGE LUIS GALVEZ VALLEJO (WEBSITE ADMINISTRATOR),
     PENG XU


 PARALLEL VERSION RUNNING ON       16 PROCESSORS IN        1 NODES.

 EXECUTION OF GAMESS BEGUN 14:31:25 25-DEC-2023    

            ECHO OF THE FIRST FEW INPUT CARDS -
 INPUT CARD> $CONTRL SCFTYP=UHF RUNTYP=EDA dfttyp=B3LYP ispher=1 icharg=0 mult=1 $END       
 INPUT CARD> $SYSTEM  mwords=150 memddi=150 $END                                            
 INPUT CARD> $BASIS gbasis=accd $END                                                        
 INPUT CARD> $LMOEDA MATOM(1)=5 5 MCHARG(1)=0 0 MMULT(1)=2 -2 edatyp=gks $end               
 INPUT CARD> $scf DIIS=.TRUE. ETHRSH=2.0 SWDIIS=0.005 $end                                  
 INPUT CARD> $data                                                                          
 INPUT CARD> EDA calculation with XEDA 1.0                                                  
 INPUT CARD> c1                                                                             
 INPUT CARD>C   6    0.0000022436    0.9348962852   -1.3503046224                           
 INPUT CARD>C   6    0.0000022436    0.9348962852    0.0081210667                           
 INPUT CARD>H   1    0.0000070619    1.9007627937    0.5271752761                           
 INPUT CARD>H   1    0.0000052774    0.0145662386   -1.9415309290                           
 INPUT CARD>H   1    0.0000093809    1.8669844540   -1.9195457536                           
 INPUT CARD>C   6    0.0000022436   -0.2636923012    0.8969791198                           
 INPUT CARD>C   6   -0.0000070997   -1.5635882383    0.5025340374                           
 INPUT CARD>H   1   -0.0000174567   -1.8620919058   -0.5498212030                           
 INPUT CARD>H   1   -0.0000095471   -2.3789592445    1.2291634851                           
 INPUT CARD>H   1    0.0000096759   -0.0474458042    1.9719453808                           
 INPUT CARD> $end                                                                           
  150000000 WORDS OF MEMORY AVAILABLE

     BASIS OPTIONS
     -------------
     GBASIS=ACCD         IGAUSS=       0      POLAR=NONE    
     NDFUNC=       0     NFFUNC=       0     DIFFSP=       F
     NPFUNC=       0      DIFFS=       F     BASNAM=        


     RUN TITLE
     ---------
  EDA calculation with XEDA 1.0                                                  

 THE POINT GROUP OF THE MOLECULE IS C1      
 THE ORDER OF THE PRINCIPAL AXIS IS     0

 ATOM      ATOMIC                      COORDINATES (BOHR)
           CHARGE         X                   Y                   Z
 C           6.0     0.0000042398        1.7666978060       -2.5517057363
 C           6.0     0.0000042398        1.7666978060        0.0153465908
 H           1.0     0.0000133451        3.5919208477        0.9962168193
 H           1.0     0.0000099728        0.0275261996       -3.6689614525
 H           1.0     0.0000177273        3.5280890414       -3.6274154952
 C           6.0     0.0000042398       -0.4983061943        1.6950447531
 C           6.0    -0.0000134165       -2.9547533280        0.9496516302
 H           1.0    -0.0000329884       -3.5188434659       -1.0390114159
 H           1.0    -0.0000180414       -4.4955811081        2.3227821810
 H           1.0     0.0000182848       -0.0896595692        3.7264364325

          INTERNUCLEAR DISTANCES (ANGS.)
          ------------------------------

                1 C          2 C          3 H          4 H          5 H     

   1 C       0.0000000    1.3584257 *  2.1113571 *  1.0938720 *  1.0921647 *
   2 C       1.3584257 *  0.0000000    1.0965014 *  2.1559569 *  2.1411884 *
   3 H       2.1113571 *  1.0965014 *  0.0000000    3.1068067    2.4469542 *
   4 H       1.0938720 *  2.1559569 *  3.1068067    0.0000000    1.8525487 *
   5 H       1.0921647 *  2.1411884 *  2.4469542 *  1.8525487 *  0.0000000  
   6 C       2.5469391 *  1.4922075 *  2.1958189 *  2.8521163 *  3.5316562  
   7 C       3.1105363    2.5469333 *  3.4644387    2.9092998 *  4.1994404  
   8 H       2.9092811 *  2.8520944 *  3.9139490    2.3363865 *  3.9726762  
   9 H       4.1994397    3.5316544    4.3369123    3.9726902    5.2860579  
  10 H       3.4644395    2.1958146 *  2.4254644 *  3.9139676    4.3369052  

                6 C          7 C          8 H          9 H         10 H     

   1 C       2.5469391 *  3.1105363    2.9092811 *  4.1994397    3.4644395  
   2 C       1.4922075 *  2.5469333 *  2.8520944 *  3.5316544    2.1958146 *
   3 H       2.1958189 *  3.4644387    3.9139490    4.3369123    2.4254644 *
   4 H       2.8521163 *  2.9092998 *  2.3363865 *  3.9726902    3.9139676  
   5 H       3.5316562    4.1994404    3.9726762    5.2860579    4.3369052  
   6 C       0.0000000    1.3584242 *  2.1559482 *  2.1411914 *  1.0965013 *
   7 C       1.3584242 *  0.0000000    1.0938720 *  1.0921631 *  2.1113639 *
   8 H       2.1559482 *  1.0938720 *  0.0000000    1.8525492 *  3.1068066  
   9 H       2.1411914 *  1.0921631 *  1.8525492 *  0.0000000    2.4469736 *
  10 H       1.0965013 *  2.1113639 *  3.1068066    2.4469736 *  0.0000000  

  * ... LESS THAN  3.000


     ATOMIC BASIS SET
     ----------------
 THE CONTRACTED PRIMITIVE FUNCTIONS HAVE BEEN UNNORMALIZED
 THE CONTRACTED BASIS FUNCTIONS ARE NOW NORMALIZED TO UNITY

  SHELL TYPE  PRIMITIVE        EXPONENT          CONTRACTION COEFFICIENT(S)

 C         

      1   S       1          6665.0000000    0.000691583963
      1   S       2          1000.0000000    0.005325796153
      1   S       3           228.0000000    0.027060721042
      1   S       4            64.7100000    0.101656846141
      1   S       5            21.0600000    0.274574823617
      1   S       6             7.4950000    0.448294318924
      1   S       7             2.7970000    0.284902610715
      1   S       8             0.5215000    0.015194859206

      2   S       9          6665.0000000   -0.000293269653
      2   S      10          1000.0000000   -0.002318035474
      2   S      11           228.0000000   -0.011499786039
      2   S      12            64.7100000   -0.046826727010
      2   S      13            21.0600000   -0.128466168750
      2   S      14             7.4950000   -0.301266272463
      2   S      15             2.7970000   -0.255630702330
      2   S      16             0.5215000    1.093793361012

      3   S      17             0.1596000    1.000000000000

      4   P      18             9.4390000    0.056979251590
      4   P      19             2.0020000    0.313207211501
      4   P      20             0.5456000    0.760376741738

      5   P      21             0.1517000    1.000000000000

      6   D      22             0.5500000    1.000000000000

      7   S      23             0.0469000    1.000000000000

      8   P      24             0.0404100    1.000000000000

      9   D      25             0.1510000    1.000000000000

 C         

     10   S      26          6665.0000000    0.000691583963
     10   S      27          1000.0000000    0.005325796153
     10   S      28           228.0000000    0.027060721042
     10   S      29            64.7100000    0.101656846141
     10   S      30            21.0600000    0.274574823617
     10   S      31             7.4950000    0.448294318924
     10   S      32             2.7970000    0.284902610715
     10   S      33             0.5215000    0.015194859206

     11   S      34          6665.0000000   -0.000293269653
     11   S      35          1000.0000000   -0.002318035474
     11   S      36           228.0000000   -0.011499786039
     11   S      37            64.7100000   -0.046826727010
     11   S      38            21.0600000   -0.128466168750
     11   S      39             7.4950000   -0.301266272463
     11   S      40             2.7970000   -0.255630702330
     11   S      41             0.5215000    1.093793361012

     12   S      42             0.1596000    1.000000000000

     13   P      43             9.4390000    0.056979251590
     13   P      44             2.0020000    0.313207211501
     13   P      45             0.5456000    0.760376741738

     14   P      46             0.1517000    1.000000000000

     15   D      47             0.5500000    1.000000000000

     16   S      48             0.0469000    1.000000000000

     17   P      49             0.0404100    1.000000000000

     18   D      50             0.1510000    1.000000000000

 H         

     19   S      51            13.0100000    0.033498726390
     19   S      52             1.9620000    0.234800801174
     19   S      53             0.4446000    0.813682957883

     20   S      54             0.1220000    1.000000000000

     21   P      55             0.7270000    1.000000000000

     22   S      56             0.0297400    1.000000000000

     23   P      57             0.1410000    1.000000000000

 H         

     24   S      58            13.0100000    0.033498726390
     24   S      59             1.9620000    0.234800801174
     24   S      60             0.4446000    0.813682957883

     25   S      61             0.1220000    1.000000000000

     26   P      62             0.7270000    1.000000000000

     27   S      63             0.0297400    1.000000000000

     28   P      64             0.1410000    1.000000000000

 H         

     29   S      65            13.0100000    0.033498726390
     29   S      66             1.9620000    0.234800801174
     29   S      67             0.4446000    0.813682957883

     30   S      68             0.1220000    1.000000000000

     31   P      69             0.7270000    1.000000000000

     32   S      70             0.0297400    1.000000000000

     33   P      71             0.1410000    1.000000000000

 C         

     34   S      72          6665.0000000    0.000691583963
     34   S      73          1000.0000000    0.005325796153
     34   S      74           228.0000000    0.027060721042
     34   S      75            64.7100000    0.101656846141
     34   S      76            21.0600000    0.274574823617
     34   S      77             7.4950000    0.448294318924
     34   S      78             2.7970000    0.284902610715
     34   S      79             0.5215000    0.015194859206

     35   S      80          6665.0000000   -0.000293269653
     35   S      81          1000.0000000   -0.002318035474
     35   S      82           228.0000000   -0.011499786039
     35   S      83            64.7100000   -0.046826727010
     35   S      84            21.0600000   -0.128466168750
     35   S      85             7.4950000   -0.301266272463
     35   S      86             2.7970000   -0.255630702330
     35   S      87             0.5215000    1.093793361012

     36   S      88             0.1596000    1.000000000000

     37   P      89             9.4390000    0.056979251590
     37   P      90             2.0020000    0.313207211501
     37   P      91             0.5456000    0.760376741738

     38   P      92             0.1517000    1.000000000000

     39   D      93             0.5500000    1.000000000000

     40   S      94             0.0469000    1.000000000000

     41   P      95             0.0404100    1.000000000000

     42   D      96             0.1510000    1.000000000000

 C         

     43   S      97          6665.0000000    0.000691583963
     43   S      98          1000.0000000    0.005325796153
     43   S      99           228.0000000    0.027060721042
     43   S     100            64.7100000    0.101656846141
     43   S     101            21.0600000    0.274574823617
     43   S     102             7.4950000    0.448294318924
     43   S     103             2.7970000    0.284902610715
     43   S     104             0.5215000    0.015194859206

     44   S     105          6665.0000000   -0.000293269653
     44   S     106          1000.0000000   -0.002318035474
     44   S     107           228.0000000   -0.011499786039
     44   S     108            64.7100000   -0.046826727010
     44   S     109            21.0600000   -0.128466168750
     44   S     110             7.4950000   -0.301266272463
     44   S     111             2.7970000   -0.255630702330
     44   S     112             0.5215000    1.093793361012

     45   S     113             0.1596000    1.000000000000

     46   P     114             9.4390000    0.056979251590
     46   P     115             2.0020000    0.313207211501
     46   P     116             0.5456000    0.760376741738

     47   P     117             0.1517000    1.000000000000

     48   D     118             0.5500000    1.000000000000

     49   S     119             0.0469000    1.000000000000

     50   P     120             0.0404100    1.000000000000

     51   D     121             0.1510000    1.000000000000

 H         

     52   S     122            13.0100000    0.033498726390
     52   S     123             1.9620000    0.234800801174
     52   S     124             0.4446000    0.813682957883

     53   S     125             0.1220000    1.000000000000

     54   P     126             0.7270000    1.000000000000

     55   S     127             0.0297400    1.000000000000

     56   P     128             0.1410000    1.000000000000

 H         

     57   S     129            13.0100000    0.033498726390
     57   S     130             1.9620000    0.234800801174
     57   S     131             0.4446000    0.813682957883

     58   S     132             0.1220000    1.000000000000

     59   P     133             0.7270000    1.000000000000

     60   S     134             0.0297400    1.000000000000

     61   P     135             0.1410000    1.000000000000

 H         

     62   S     136            13.0100000    0.033498726390
     62   S     137             1.9620000    0.234800801174
     62   S     138             0.4446000    0.813682957883

     63   S     139             0.1220000    1.000000000000

     64   P     140             0.7270000    1.000000000000

     65   S     141             0.0297400    1.000000000000

     66   P     142             0.1410000    1.000000000000

 TOTAL NUMBER OF BASIS SET SHELLS             =   66
 NUMBER OF CARTESIAN GAUSSIAN BASIS FUNCTIONS =  154
 NOTE: THIS RUN WILL RESTRICT THE MO VARIATION SPACE TO SPHERICAL HARMONICS.
 THE NUMBER OF ORBITALS KEPT IN THE VARIATIONAL SPACE WILL BE PRINTED LATER.
 NUMBER OF ELECTRONS                          =   30
 CHARGE OF MOLECULE                           =    0
 SPIN MULTIPLICITY                            =    1
 NUMBER OF OCCUPIED ORBITALS (ALPHA)          =   15
 NUMBER OF OCCUPIED ORBITALS (BETA )          =   15
 TOTAL NUMBER OF ATOMS                        =   10
 THE NUCLEAR REPULSION ENERGY IS      103.3419755291

 SELECTED MURRAY-HANDY-LAMING RADIAL GRID

 LEGACY BECKE'S FUZZY CELL METHOD

 SELECTED ORIGINAL BECKE'S PARTITION FUNCTION

     LEBEDEV GRID-BASED DFT OPTIONS
     ------------------------------
     DFTTYP=B3LYP   
     NRAD  =      96     NLEB  =     302
     NRAD0 =      24     NLEB0 =     110
     SWOFF =    5.00E-03 (PURE SCF -> DFT)
     SWITCH=    3.00E-04 (COARSE -> TIGHT GRID)
     THRESH=    0.00E+00 GTHRE=    1.00E+00

 GRIMME'S EMPIRICAL DISPERSION CORRECTION= F

     $CONTRL OPTIONS
     ---------------
 SCFTYP=UHF          RUNTYP=LMOEDA       EXETYP=RUN     
 MPLEVL=       0     CITYP =NONE         CCTYP =NONE         VBTYP =NONE    
 DFTTYP=B3LYP        TDDFT =NONE    
 MULT  =       1     ICHARG=       0     NZVAR =       0     COORD =UNIQUE  
 PP    =NONE         RELWFN=NONE         LOCAL =NONE         NUMGRD=       F
 ISPHER=       1     NOSYM =       0     MAXIT =      30     UNITS =ANGS    
 PLTORB=       F     MOLPLT=       F     AIMPAC=       F     FRIEND=        
 NPRINT=       7     IREST =       0     GEOM  =INPUT   
 NORMF =       0     NORMP =       0     ITOL  =      20     ICUT  =       9
 INTTYP=BEST         GRDTYP=BEST         QMTTOL= 1.0E-06

     $SYSTEM OPTIONS
     ---------------
  REPLICATED MEMORY=   150000000 WORDS (ON EVERY NODE).
 DISTRIBUTED MEMDDI=         150 MILLION WORDS IN AGGREGATE,
 MEMDDI DISTRIBUTED OVER  16 PROCESSORS IS     9375000 WORDS/PROCESSOR.
 TOTAL MEMORY REQUESTED ON EACH PROCESSOR=   159375000 WORDS.
 TIMLIM=      525600.00 MINUTES, OR     365.0 DAYS.
 PARALL= T  BALTYP=  DLB     KDIAG=    0  COREFL= F
 MXSEQ2=     300 MXSEQ3=     150  mem10=         0  mem22=         0

 Using Gaussians for PCM contribution to MEP, params: 0.10000E+01 0.10000E-07

          ----------------
          PROPERTIES INPUT
          ----------------

     MOMENTS            FIELD           POTENTIAL          DENSITY
 IEMOM =       1   IEFLD =       0   IEPOT =       0   IEDEN =       0
 WHERE =COMASS     WHERE =NUCLEI     WHERE =NUCLEI     WHERE =NUCLEI  
 OUTPUT=BOTH       OUTPUT=BOTH       OUTPUT=BOTH       OUTPUT=BOTH    
 IEMINT=       0   IEFINT=       0                     IEDINT=       0
                                                       MORB  =       0
          EXTRAPOLATION IN EFFECT
          DIIS IN EFFECT
          DIIS or SOSCF will be reset if energy rises
 ORBITAL PRINTING OPTION: NPREO=     1   154     2     1

     -------------------------------
     INTEGRAL TRANSFORMATION OPTIONS
     -------------------------------
     NWORD  =            0
     CUTOFF = 1.0E-09     MPTRAN =       0
     DIRTRF =       F     AOINTS =DUP     

          -----------------------------
          LOCALIZATION INPUT PARAMETERS
          -----------------------------
           LOCAL=RUEDNBRG      NOUTA=       0
          PRTLOC=       F      NOUTB=       0
          MAXLOC=     250     CVGLOC=1.00E-06
           FCORE=       F     SYMLOC=       F
          MOIDON=       F     EDCOMP=       F
          DIPDCM=       F      NPROT=       0
          QADDCM=       F     DEPRNT=       F
          POLNUM=       F     ORIENT=       F
          POLDYN=       F      VMTOL=1.50E-01
          NPRDTL=       2     IBOYAL=       1

          ----------------------
          INTEGRAL INPUT OPTIONS
          ----------------------
 NOPK  =       1 NORDER=       0 SCHWRZ=       T

     ------------------------------------------
     THE POINT GROUP IS C1 , NAXIS= 0, ORDER= 1
     ------------------------------------------

 -- VARIATIONAL SPACE WILL BE RESTRICTED TO PURE SPHERICAL HARMONICS ONLY --
 AFTER EXCLUDING CONTAMINANT COMBINATIONS FROM THE CARTESIAN GAUSSIAN BASIS
 SET, THE NUMBER OF SPHERICAL HARMONICS KEPT IN THE VARIATION SPACE IS  146

     DIMENSIONS OF THE SYMMETRY SUBSPACES ARE
 A   =  146

 ..... DONE SETTING UP THE RUN .....
 CPU     0: STEP CPU TIME=     0.02 TOTAL CPU TIME=          0.0 (      0.0 MIN)
 TOTAL WALL CLOCK TIME=          0.0 SECONDS, CPU UTILIZATION IS    70.38%

          --------------
          GKSEDA OPTIONS
          --------------
          NMOL  =       2          EDATYP=GKS     
          SUPBAS=       T          RDVECM=       F          ITRTN =       T

 *******************
 GKSEDA IS BEGINNING
 *******************

 NMOL =  2

 MONOMER     ATOM   CHARGE ELECTRON MULTIPLE
 -------------------------------------------
       1        5        0       15        2
       2        5        0       15       -2
 -------------------------------------------

 SAVING MOL INFO REQUIRES    598670 WORDS OF MEMORY.

          ********************
          1 ELECTRON INTEGRALS
          ********************
 ...... END OF ONE-ELECTRON INTEGRALS ......
 CPU     0: STEP CPU TIME=     0.01 TOTAL CPU TIME=          0.0 (      0.0 MIN)
 TOTAL WALL CLOCK TIME=          0.0 SECONDS, CPU UTILIZATION IS    74.14%

          -------------
          GUESS OPTIONS
          -------------
          GUESS =HUCKEL            NORB  =       0          NORDER=       0
          MIX   =       F          PRTMO =       F          PUNMO =       F
          TOLZ  = 1.0E-08          TOLE  = 1.0E-05
          SYMDEN=       F          PURIFY=       F

 INITIAL GUESS ORBITALS GENERATED BY HUCKEL   ROUTINE.
 HUCKEL GUESS REQUIRES    180842 WORDS.

 STATISTICS FOR GENERATION OF SYMMETRY ORBITAL -Q- MATRIX
 NUMBER OF CARTESIAN ATOMIC ORBITALS=        154
 NUMBER OF SPHERICAL CONTAMINANTS DROPPED=     8
 NUMBER OF LINEARLY DEPENDENT MOS DROPPED=     0
 TOTAL NUMBER OF MOS IN VARIATION SPACE=     146

 SYMMETRIES FOR INITIAL GUESS ORBITALS FOLLOW.  ALPHA SET(S).
    15 ORBITALS ARE OCCUPIED (    4 CORE ORBITALS).
     5=A        6=A        7=A        8=A        9=A       10=A       11=A   
    12=A       13=A       14=A       15=A       16=A       17=A       18=A   
    19=A       20=A       21=A       22=A       23=A       24=A       25=A   

 SYMMETRIES FOR INITIAL GUESS ORBITALS FOLLOW.   BETA SET(S).
    15 ORBITALS ARE OCCUPIED (    4 CORE ORBITALS).
     5=A        6=A        7=A        8=A        9=A       10=A       11=A   
    12=A       13=A       14=A       15=A       16=A       17=A       18=A   
    19=A       20=A       21=A       22=A       23=A       24=A       25=A   
 ...... END OF INITIAL ORBITAL SELECTION ......
 CPU     0: STEP CPU TIME=     0.01 TOTAL CPU TIME=          0.0 (      0.0 MIN)
 TOTAL WALL CLOCK TIME=          0.1 SECONDS, CPU UTILIZATION IS    80.72%

          -------------------------
          MONOMER  1 WITH OWN BASIS
          -------------------------

     ------------------------------------------
     THE POINT GROUP IS C1 , NAXIS= 0, ORDER= 1
     ------------------------------------------

 -- VARIATIONAL SPACE WILL BE RESTRICTED TO PURE SPHERICAL HARMONICS ONLY --
 AFTER EXCLUDING CONTAMINANT COMBINATIONS FROM THE CARTESIAN GAUSSIAN BASIS
 SET, THE NUMBER OF SPHERICAL HARMONICS KEPT IN THE VARIATION SPACE IS   73

     DIMENSIONS OF THE SYMMETRY SUBSPACES ARE
 A   =   73

          ********************
          1 ELECTRON INTEGRALS
          ********************
 ...... END OF ONE-ELECTRON INTEGRALS ......
 CPU     0: STEP CPU TIME=     0.01 TOTAL CPU TIME=          0.0 (      0.0 MIN)
 TOTAL WALL CLOCK TIME=          0.1 SECONDS, CPU UTILIZATION IS    78.37%

          -------------
          GUESS OPTIONS
          -------------
          GUESS =HUCKEL            NORB  =       0          NORDER=       0
          MIX   =       F          PRTMO =       F          PUNMO =       F
          TOLZ  = 1.0E-08          TOLE  = 1.0E-05
          SYMDEN=       F          PURIFY=       F

 INITIAL GUESS ORBITALS GENERATED BY HUCKEL   ROUTINE.
 HUCKEL GUESS REQUIRES     47410 WORDS.

 STATISTICS FOR GENERATION OF SYMMETRY ORBITAL -Q- MATRIX
 NUMBER OF CARTESIAN ATOMIC ORBITALS=         77
 NUMBER OF SPHERICAL CONTAMINANTS DROPPED=     4
 NUMBER OF LINEARLY DEPENDENT MOS DROPPED=     0
 TOTAL NUMBER OF MOS IN VARIATION SPACE=      73

 SYMMETRIES FOR INITIAL GUESS ORBITALS FOLLOW.  ALPHA SET(S).
     8 ORBITALS ARE OCCUPIED (    2 CORE ORBITALS).
     3=A        4=A        5=A        6=A        7=A        8=A        9=A   
    10=A       11=A       12=A       13=A       14=A       15=A       16=A   
    17=A       18=A   

 SYMMETRIES FOR INITIAL GUESS ORBITALS FOLLOW.   BETA SET(S).
     7 ORBITALS ARE OCCUPIED (    2 CORE ORBITALS).
     3=A        4=A        5=A        6=A        7=A        8=A        9=A   
    10=A       11=A       12=A       13=A       14=A       15=A       16=A   
    17=A   
 ...... END OF INITIAL ORBITAL SELECTION ......
 CPU     0: STEP CPU TIME=     0.00 TOTAL CPU TIME=          0.1 (      0.0 MIN)
 TOTAL WALL CLOCK TIME=          0.1 SECONDS, CPU UTILIZATION IS    79.40%

                    ----------------------
                    AO INTEGRAL TECHNOLOGY
                    ----------------------
     S,P,L SHELL ROTATED AXIS INTEGRALS, REPROGRAMMED BY
        KAZUYA ISHIMURA (IMS) AND JOSE SIERRA (SYNSTAR).
     S,P,D,L SHELL ROTATED AXIS INTEGRALS PROGRAMMED BY
        KAZUYA ISHIMURA (INSTITUTE FOR MOLECULAR SCIENCE).
     S,P,D,F,G SHELL TO TOTAL QUARTET ANGULAR MOMENTUM SUM 5,
        ERIC PROGRAM BY GRAHAM FLETCHER (ELORET AND NASA ADVANCED
        SUPERCOMPUTING DIVISION, AMES RESEARCH CENTER).
     S,P,D,F,G,L SHELL GENERAL RYS QUADRATURE PROGRAMMED BY
        MICHEL DUPUIS (PACIFIC NORTHWEST NATIONAL LABORATORY).

          --------------------
          2 ELECTRON INTEGRALS
          --------------------

 THE -PK- OPTION IS OFF, THE INTEGRALS ARE NOT IN SUPERMATRIX FORM.
 STORING   15000 INTEGRALS/RECORD ON DISK, USING 12 BYTES/INTEGRAL.
 TWO ELECTRON INTEGRAL EVALUATION REQUIRES   90957 WORDS OF MEMORY.
 SCHWARZ INEQUALITY OVERHEAD:      3003 INTEGRALS, T=        0.00
 II,JST,KST,LST =  1  1  1  1 NREC =         1 INTLOC =    1
 II,JST,KST,LST =  2  1  1  1 NREC =         1 INTLOC =    1
 II,JST,KST,LST =  3  1  1  1 NREC =         1 INTLOC =    1
 II,JST,KST,LST =  4  1  1  1 NREC =         1 INTLOC =    1
 II,JST,KST,LST =  5  1  1  1 NREC =         1 INTLOC =    1
 II,JST,KST,LST =  6  1  1  1 NREC =         1 INTLOC =    1
 II,JST,KST,LST =  7  1  1  1 NREC =         1 INTLOC =    4
 II,JST,KST,LST =  8  1  1  1 NREC =         1 INTLOC =   49
 II,JST,KST,LST =  9  1  1  1 NREC =         1 INTLOC =  205
 II,JST,KST,LST = 10  1  1  1 NREC =         1 INTLOC =  205
 II,JST,KST,LST = 11  1  1  1 NREC =         1 INTLOC =  243
 II,JST,KST,LST = 12  1  1  1 NREC =         1 INTLOC =  392
 II,JST,KST,LST = 13  1  1  1 NREC =         1 INTLOC =  848
 II,JST,KST,LST = 14  1  1  1 NREC =         1 INTLOC = 4395
 II,JST,KST,LST = 15  1  1  1 NREC =         1 INTLOC = 4395
 II,JST,KST,LST = 16  1  1  1 NREC =         1 INTLOC =10612
 II,JST,KST,LST = 17  1  1  1 NREC =         1 INTLOC =10612
 II,JST,KST,LST = 18  1  1  1 NREC =         1 INTLOC =10612
 II,JST,KST,LST = 19  1  1  1 NREC =         2 INTLOC = 7409
 II,JST,KST,LST = 20  1  1  1 NREC =         2 INTLOC = 7409
 II,JST,KST,LST = 21  1  1  1 NREC =         2 INTLOC = 7409
 II,JST,KST,LST = 22  1  1  1 NREC =         4 INTLOC = 1210
 II,JST,KST,LST = 23  1  1  1 NREC =         4 INTLOC = 1210
 II,JST,KST,LST = 24  1  1  1 NREC =         5 INTLOC = 2095
 II,JST,KST,LST = 25  1  1  1 NREC =         5 INTLOC = 9615
 II,JST,KST,LST = 26  1  1  1 NREC =         6 INTLOC = 2291
 II,JST,KST,LST = 27  1  1  1 NREC =         8 INTLOC = 2755
 II,JST,KST,LST = 28  1  1  1 NREC =         8 INTLOC = 2755
 II,JST,KST,LST = 29  1  1  1 NREC =        11 INTLOC = 2445
 II,JST,KST,LST = 30  1  1  1 NREC =        11 INTLOC = 8504
 II,JST,KST,LST = 31  1  1  1 NREC =        12 INTLOC = 2130
 II,JST,KST,LST = 32  1  1  1 NREC =        14 INTLOC = 4601
 II,JST,KST,LST = 33  1  1  1 NREC =        16 INTLOC = 1594
 SCHWARZ INEQUALITY TEST SKIPPED           0 INTEGRAL BLOCKS.
 TOTAL NUMBER OF NONZERO TWO-ELECTRON INTEGRALS =             3609066
        247 INTEGRAL RECORDS WERE STORED ON DISK FILE  8.
  ...... END OF TWO-ELECTRON INTEGRALS .....
 CPU     0: STEP CPU TIME=     0.03 TOTAL CPU TIME=          0.1 (      0.0 MIN)
 TOTAL WALL CLOCK TIME=          0.1 SECONDS, CPU UTILIZATION IS    82.26%

          ---------------------------
              U-B3LYP SCF CALCULATION
          ---------------------------

     NUCLEAR ENERGY =        27.8608007804
     MAXIT = 30     NPUNCH=  2     MULT=  2
     EXTRAP=T  DAMP=F  SHIFT=F  RSTRCT=F  DIIS=T  SOSCF=T
         DENSITY MATRIX CONVERGENCE THRESHOLD=  1.00E-05
     COARSE -> FINE DFT GRID SWITCH THRESHOLD=  3.00E-04 (SWITCH IN $DFT)
                   HF -> DFT SWITCH THRESHOLD=  5.00E-03 (SWOFF IN $DFT)
     SOSCF WILL OPTIMIZE     520 ALPHA AND     462 BETA ROTATION ANGLES.
     SOGTOL= 2.500E-01
     MEMORY REQUIRED FOR UHF/ROHF ITERS=    298732 WORDS.

     EXCHANGE FUNCTIONAL   =B88&HFX   
     CORRELATION FUNCTIONAL=LYP88&VWN5
     DFT THRESHOLD         =.690E-08
     GRID CHANGE THRESHOLD =.300E-03
 FOR AN EULER-MACLAURIN QUADRATURE USING  96 RADIAL POINTS:
 SMALLEST GAUSSIAN PRIMITIVE EXPONENT=        0.0297400000 OF TYPE -S-
 ON ATOM NUMBER   3 HAS RADIAL NORMALIZATION=  1.000000
  LARGEST GAUSSIAN PRIMITIVE EXPONENT=     6665.0000000000 OF TYPE -S-
 ON ATOM NUMBER   1 HAS RADIAL NORMALIZATION=  1.000000
 DFT IS SWITCHED OFF, PERFORMING PURE SCF UNTIL SWOFF THRESHOLD IS REACHED.

 ITER EX      TOTAL ENERGY        E CHANGE  DENSITY CHANGE    DIIS ERROR
          * * *   INITIATING DIIS PROCEDURE   * * *
   1  0      -77.1735571918   -77.1735571918   0.501355322   0.354443225
   2  1      -77.3677892110    -0.1942320192   0.154013704   0.054517216
   3  2      -77.3838337310    -0.0160445200   0.031376136   0.026255356
   4  3      -77.3882847847    -0.0044510537   0.022218460   0.011355002
   5  4      -77.3896827041    -0.0013979195   0.013037809   0.008656801
   6  5      -77.3903443706    -0.0006616665   0.024428428   0.008664403
   7  6      -77.3914245781    -0.0010802075   0.063030697   0.008431905
   8  7      -77.3937986107    -0.0023740326   0.118071435   0.006657494
   9  8      -77.3954192144    -0.0016206037   0.075396603   0.002404401
  10  9      -77.3949360686     0.0004831458   0.045532571   0.004427167
  11 10      -77.3955192109    -0.0005831423   0.008673677   0.000833929
  12 11      -77.3955382455    -0.0000190346   0.000278925   0.000080408
 CONVERGED TO SWOFF, SO DFT CALCULATION IS NOW SWITCHED ON.
          * * *   INITIATING DIIS PROCEDURE   * * *
  13 12      -77.8292022232    -0.4336639777   0.398655954   0.061862952
  14 13      -77.8458505620    -0.0166483388   0.062916118   0.016836091
  15 14      -77.8485486563    -0.0026980943   0.024666192   0.012016627
  16 15      -77.8500127395    -0.0014640832   0.051111355   0.007424753
  17 16      -77.8510060131    -0.0009932736   0.009134300   0.003330879
  18 17      -77.8510858273    -0.0000798143   0.006004933   0.001443046
  19 18      -77.8511060288    -0.0000202015   0.002065703   0.000283985
         SWDIIS THRESHOLD HAS BEEN REACHED: SWITCHING DIIS OFF.
          ---------------START SECOND ORDER SCF---------------
  20 19      -77.8511072228    -0.0000011940   0.000140281   0.000023804
  21 20      -77.8511072350    -0.0000000122   0.000155341   0.000024712
  22 21      -77.8511072362    -0.0000000012   0.000064301   0.000020304
  23 22      -77.8511072401    -0.0000000040   0.000009118   0.000002426
  24 23      -77.8511072403    -0.0000000001   0.000012222   0.000002054

          ----------------
          ENERGY CONVERGED
          ----------------
     TIME TO FORM FOCK OPERATORS=       1.2 SECONDS (       0.1 SEC/ITER)
     TIME TO SOLVE SCF EQUATIONS=       0.1 SECONDS (       0.0 SEC/ITER)

 FINAL U-B3LYP ENERGY IS      -77.8511072403 AFTER  24 ITERATIONS
 DFT EXCHANGE + CORRELATION ENERGY =        -9.5242638189
 TOTAL ELECTRON NUMBER             =        15.0000044866

          --------------------
          SPIN SZ   =    0.500
          S-SQUARED =    0.764
          --------------------

  ----- ALPHA SET ----- 

          ------------
          EIGENVECTORS
          ------------

                      1          2          3          4          5
                  -10.2297   -10.2022    -0.7670    -0.5784    -0.4638
                     A          A          A          A          A   
    1  C  1  S    0.011779   1.009645  -0.019598   0.011302  -0.002226
    2  C  1  S   -0.001535   0.022138   0.315884  -0.227880  -0.001634
    3  C  1  S    0.040305  -0.073129   0.096643  -0.321212  -0.037285
    4  C  1  X    0.000000   0.000000   0.000000  -0.000001   0.000002
    5  C  1  Y   -0.000026   0.000004   0.008992   0.030883   0.341739
    6  C  1  Z   -0.000994  -0.000369   0.110074   0.209297  -0.207182
    7  C  1  X   -0.000000  -0.000000  -0.000000   0.000001  -0.000000
    8  C  1  Y   -0.001134  -0.000423   0.022560   0.030156  -0.012841
    9  C  1  Z    0.038949  -0.008924  -0.027290  -0.243027   0.043283
   10  C  1 XX    0.000196  -0.001626  -0.006329   0.001491  -0.001770
   11  C  1 YY    0.000857   0.000821  -0.007477  -0.011211   0.008872
   12  C  1 ZZ   -0.001053   0.000805   0.013806   0.009720  -0.007102
   13  C  1 XY    0.000000   0.000000   0.000000  -0.000000   0.000000
   14  C  1 XZ   -0.000000  -0.000000   0.000000   0.000000  -0.000000
   15  C  1 YZ    0.000465   0.000104   0.000258   0.002319  -0.005939
   16  C  1  S    0.015135  -0.033624   0.016039   0.137948  -0.064109
   17  C  1  X   -0.000000  -0.000000  -0.000000   0.000000  -0.000000
   18  C  1  Y    0.000698   0.000748  -0.003747   0.008499  -0.057825
   19  C  1  Z    0.006197  -0.003584  -0.002101   0.011314  -0.010747
   20  C  1 XX   -0.002138   0.004877   0.006060  -0.007055  -0.006945
   21  C  1 YY   -0.004526   0.001580  -0.008122   0.106380  -0.046510
   22  C  1 ZZ    0.006664  -0.006457   0.002061  -0.099326   0.053455
   23  C  1 XY    0.000000  -0.000000  -0.000000   0.000001  -0.000001
   24  C  1 XZ    0.000000   0.000000   0.000000   0.000000  -0.000000
   25  C  1 YZ   -0.002988  -0.001182   0.024190   0.023492   0.104684
   26  C  2  S    1.009988  -0.013360  -0.016950  -0.006347  -0.000342
   27  C  2  S    0.022713  -0.001361   0.307275   0.268519  -0.071998
   28  C  2  S   -0.090171   0.024466   0.250286   0.492744  -0.247908
   29  C  2  X    0.000000   0.000000   0.000000   0.000000   0.000001
   30  C  2  Y    0.000915   0.000105   0.025554   0.097690   0.258140
   31  C  2  Z   -0.000226   0.000906  -0.127837   0.115996   0.161790
   32  C  2  X   -0.000000  -0.000000  -0.000001  -0.000001   0.000001
   33  C  2  Y   -0.003600  -0.001135  -0.057224  -0.097776   0.009420
   34  C  2  Z    0.031080  -0.016842  -0.089512  -0.219142   0.066756
   35  C  2 XX   -0.000829   0.000670  -0.011398  -0.001399  -0.000488
   36  C  2 YY    0.000546   0.000641  -0.004011   0.009834   0.005973
   37  C  2 ZZ    0.000283  -0.001311   0.015409  -0.008434  -0.005485
   38  C  2 XY    0.000000   0.000000   0.000000   0.000000   0.000000
   39  C  2 XZ    0.000000  -0.000000  -0.000000   0.000000  -0.000000
   40  C  2 YZ    0.000853   0.000061  -0.006345  -0.001667  -0.009711
   41  C  2  S   -0.028775   0.019506  -0.019128  -0.116910   0.026365
   42  C  2  X   -0.000000   0.000000  -0.000000  -0.000000   0.000000
   43  C  2  Y   -0.001375  -0.001314  -0.000613  -0.026711   0.018003
   44  C  2  Z    0.004282  -0.005670   0.006247   0.005145  -0.014150
   45  C  2 XX    0.005961  -0.001062  -0.006563   0.006174   0.001292
   46  C  2 YY    0.004212  -0.001773  -0.018066  -0.060561  -0.007949
   47  C  2 ZZ   -0.010173   0.002835   0.024630   0.054387   0.006657
   48  C  2 XY   -0.000000   0.000000  -0.000000  -0.000001   0.000000
   49  C  2 XZ   -0.000000   0.000000  -0.000000   0.000000  -0.000000
   50  C  2 YZ   -0.004035  -0.001179   0.008668  -0.019019   0.014592
   51  H  3  S   -0.000636  -0.000125   0.125991   0.256707   0.195300
   52  H  3  S    0.021325   0.007282   0.065529   0.271046   0.106167
   53  H  3  X    0.000000  -0.000000  -0.000000  -0.000000  -0.000000
   54  H  3  Y    0.001723   0.000011  -0.013091  -0.016865  -0.005982
   55  H  3  Z    0.000679   0.000165  -0.011128  -0.009551  -0.005167
   56  H  3  S    0.001233   0.001872   0.004161   0.025813   0.010761
   57  H  3  X   -0.000000  -0.000000   0.000000   0.000000  -0.000000
   58  H  3  Y   -0.007731  -0.002275  -0.007919  -0.042751  -0.011488
   59  H  3  Z   -0.002032  -0.000890  -0.017283  -0.028713  -0.010240
   60  H  4  S   -0.000317  -0.000868   0.115533  -0.231581  -0.140125
   61  H  4  S    0.017790   0.021842  -0.011133  -0.222316  -0.193327
   62  H  4  X    0.000000   0.000000  -0.000000   0.000000   0.000000
   63  H  4  Y   -0.000199  -0.001547   0.014121  -0.016977   0.000844
   64  H  4  Z   -0.000636  -0.001054   0.012622  -0.005742  -0.009971
   65  H  4  S    0.001733   0.001962  -0.000184  -0.013252  -0.041214
   66  H  4  X   -0.000000  -0.000000   0.000000   0.000000  -0.000000
   67  H  4  Y    0.004766   0.006740  -0.009132  -0.020644  -0.047751
   68  H  4  Z    0.002570   0.003046   0.008307  -0.035709   0.011790
   69  H  5  S   -0.000203  -0.000901   0.127282  -0.203256   0.339264
   70  H  5  S    0.009389   0.018827   0.017336  -0.224902   0.436384
   71  H  5  X   -0.000000   0.000000  -0.000000   0.000000  -0.000000
   72  H  5  Y   -0.000067   0.001511  -0.014626   0.016727  -0.010142
   73  H  5  Z   -0.000430  -0.000923   0.011197  -0.004771   0.004880
   74  H  5  S    0.001743   0.001225   0.002154  -0.013768   0.044321
   75  H  5  X   -0.000000   0.000000   0.000000   0.000000  -0.000001
   76  H  5  Y   -0.002374  -0.005989  -0.000364   0.020272  -0.073483
   77  H  5  Z    0.001928   0.002898  -0.001589  -0.054217   0.040670

                      6          7          8          9         10
                   -0.4134    -0.2849    -0.2748    -0.0201    -0.0020
                     A          A          A          A          A   
    1  C  1  S   -0.000046   0.000001   0.000481   0.000001  -0.002916
    2  C  1  S   -0.038091   0.000001   0.050118  -0.000000   0.084678
    3  C  1  S   -0.166937  -0.000026   0.027254  -0.000032   0.342589
    4  C  1  X    0.000001   0.391773  -0.000003   0.404372   0.000001
    5  C  1  Y   -0.253478  -0.000002  -0.137218  -0.000001   0.031098
    6  C  1  Z   -0.319940   0.000002   0.114470   0.000001  -0.095911
    7  C  1  X    0.000000   0.216086  -0.000001   0.338636   0.000003
    8  C  1  Y    0.062112  -0.000002   0.034043   0.000002   0.041132
    9  C  1  Z   -0.087713  -0.000012  -0.019662  -0.000016  -0.284065
   10  C  1 XX   -0.001207   0.000000   0.000369   0.000000   0.000941
   11  C  1 YY    0.010089  -0.000000  -0.001027  -0.000000  -0.002786
   12  C  1 ZZ   -0.008882  -0.000000   0.000658  -0.000000   0.001845
   13  C  1 XY   -0.000000   0.000732  -0.000000   0.000097  -0.000000
   14  C  1 XZ    0.000000   0.021633  -0.000000  -0.030099  -0.000000
   15  C  1 YZ    0.014091   0.000000   0.040420   0.000000   0.001512
   16  C  1  S   -0.036278  -0.000041   0.159505  -0.000022   1.283760
   17  C  1  X    0.000000   0.028876  -0.000000   0.560242   0.000003
   18  C  1  Y    0.052822   0.000002   0.020577   0.000003   0.037828
   19  C  1  Z   -0.013374  -0.000012   0.040934  -0.000004  -0.302799
   20  C  1 XX   -0.000123   0.000002  -0.005855   0.000001  -0.039539
   21  C  1 YY   -0.042441   0.000001   0.030724   0.000004   0.024161
   22  C  1 ZZ    0.042564  -0.000003  -0.024870  -0.000005   0.015378
   23  C  1 XY    0.000000   0.004620   0.000000  -0.003170   0.000001
   24  C  1 XZ   -0.000000   0.003791   0.000000  -0.041979   0.000001
   25  C  1 YZ   -0.053743  -0.000002  -0.033971  -0.000000   0.027223
   26  C  2  S   -0.000752  -0.000000  -0.000645  -0.000001  -0.002473
   27  C  2  S    0.034041  -0.000001  -0.152115  -0.000001   0.056332
   28  C  2  S   -0.053620   0.000011  -0.315712   0.000030   0.364266
   29  C  2  X    0.000001   0.443115  -0.000001  -0.412478   0.000000
   30  C  2  Y    0.039171   0.000001   0.470732   0.000002   0.045060
   31  C  2  Z    0.374796  -0.000003  -0.260544  -0.000000   0.082492
   32  C  2  X    0.000000   0.256650  -0.000001  -0.348750  -0.000002
   33  C  2  Y   -0.063787  -0.000001   0.235720   0.000001   0.100827
   34  C  2  Z    0.050544  -0.000018  -0.222512  -0.000018  -0.010060
   35  C  2 XX   -0.001462  -0.000000  -0.004691  -0.000000  -0.001712
   36  C  2 YY    0.011244  -0.000000   0.000295  -0.000000  -0.004917
   37  C  2 ZZ   -0.009782   0.000000   0.004396   0.000000   0.006629
   38  C  2 XY    0.000000  -0.000481   0.000000  -0.000050   0.000000
   39  C  2 XZ   -0.000000  -0.020367   0.000000  -0.032076  -0.000000
   40  C  2 YZ    0.017373   0.000000   0.020384   0.000000  -0.003768
   41  C  2  S   -0.017512   0.000035  -0.263371   0.000022   0.877424
   42  C  2  X   -0.000000   0.031449  -0.000000  -0.511690  -0.000001
   43  C  2  Y   -0.036362  -0.000004   0.022236   0.000000   0.189531
   44  C  2  Z   -0.014362  -0.000013   0.007653  -0.000005   0.137055
   45  C  2 XX   -0.003416  -0.000001   0.007347  -0.000002  -0.039258
   46  C  2 YY   -0.036635  -0.000003  -0.023755  -0.000003  -0.012461
   47  C  2 ZZ    0.040052   0.000004   0.016408   0.000004   0.051719
   48  C  2 XY   -0.000000  -0.001379  -0.000000   0.008381  -0.000001
   49  C  2 XZ   -0.000000  -0.007217   0.000000  -0.037937   0.000001
   50  C  2 YZ   -0.016895  -0.000002  -0.010598  -0.000001   0.031498
   51  H  3  S    0.233392   0.000001   0.197519  -0.000001   0.004118
   52  H  3  S    0.276169   0.000011   0.251086   0.000001  -0.355293
   53  H  3  X   -0.000000   0.015735  -0.000000  -0.020855  -0.000000
   54  H  3  Y   -0.009472   0.000000   0.006310   0.000000  -0.010824
   55  H  3  Z    0.001322  -0.000000  -0.016089   0.000000  -0.001246
   56  H  3  S    0.036918   0.000009   0.027896  -0.000002  -0.885557
   57  H  3  X   -0.000000   0.015627  -0.000000  -0.052930   0.000002
   58  H  3  Y   -0.038877  -0.000003  -0.018758   0.000001   0.031031
   59  H  3  Z   -0.034399  -0.000001  -0.029175   0.000000   0.031980
   60  H  4  S    0.324258   0.000001   0.144299   0.000002   0.007564
   61  H  4  S    0.393866   0.000003   0.191911   0.000005  -0.406905
   62  H  4  X   -0.000000   0.014435  -0.000000   0.021867   0.000000
   63  H  4  Y    0.009426   0.000000  -0.001208   0.000000   0.009605
   64  H  4  Z    0.003462   0.000000   0.005198   0.000000   0.002260
   65  H  4  S    0.037489  -0.000001   0.039693   0.000005  -0.644038
   66  H  4  X   -0.000000   0.015671   0.000000   0.045769   0.000001
   67  H  4  Y    0.054974   0.000001   0.035323   0.000002  -0.063628
   68  H  4  Z    0.053642   0.000000   0.003723   0.000000  -0.018556
   69  H  5  S   -0.075742  -0.000001  -0.211833   0.000001   0.003630
   70  H  5  S   -0.188070  -0.000000  -0.340713  -0.000005  -0.413690
   71  H  5  X    0.000000   0.014344  -0.000000   0.022624  -0.000000
   72  H  5  Y   -0.002949  -0.000000   0.000059  -0.000000  -0.012305
   73  H  5  Z   -0.010923   0.000000   0.000227   0.000000   0.003400
   74  H  5  S   -0.044279  -0.000005  -0.041823  -0.000003  -1.137648
   75  H  5  X    0.000000   0.012844   0.000001   0.052733   0.000001
   76  H  5  Y    0.051253  -0.000000   0.043721  -0.000000   0.034797
   77  H  5  Z   -0.006328   0.000001  -0.023922  -0.000001  -0.022413

                     11         12         13         14         15
                    0.0149     0.0252     0.0628     0.0710     0.0791
                     A          A          A          A          A   
    1  C  1  S   -0.001339   0.002610   0.000000   0.007327   0.002725
    2  C  1  S    0.067058  -0.017399   0.000001  -0.013613   0.042665
    3  C  1  S    0.189828  -0.135657  -0.000002  -0.383950   0.160708
    4  C  1  X    0.000001  -0.000001  -0.173211  -0.000001  -0.000000
    5  C  1  Y   -0.069045  -0.117388   0.000001   0.038296   0.014153
    6  C  1  Z   -0.036680   0.004798  -0.000001   0.013629   0.055058
    7  C  1  X    0.000002  -0.000003  -0.202268  -0.000007   0.000000
    8  C  1  Y   -0.174640  -0.371091  -0.000003   0.104571   0.012578
    9  C  1  Z   -0.273850   0.102645   0.000007   0.049473  -0.038349
   10  C  1 XX    0.002756  -0.003176  -0.000000  -0.007359  -0.007020
   11  C  1 YY    0.004940  -0.001829   0.000000   0.001352  -0.010911
   12  C  1 ZZ   -0.007696   0.005005   0.000000   0.006007   0.017931
   13  C  1 XY    0.000000  -0.000000   0.000678  -0.000000   0.000000
   14  C  1 XZ   -0.000000   0.000000  -0.006006   0.000000  -0.000000
   15  C  1 YZ   -0.004699  -0.003820  -0.000000  -0.010555   0.003582
   16  C  1  S    0.461257  -1.856153  -0.000068 -10.751693   1.363212
   17  C  1  X    0.000004  -0.000003   0.630286   0.000026   0.000005
   18  C  1  Y   -0.226553  -1.932034  -0.000004   0.442067  -0.480198
   19  C  1  Z   -0.534932  -0.424470  -0.000014  -4.784852  -1.635686
   20  C  1 XX   -0.010894   0.017498   0.000001   0.078742   0.023098
   21  C  1 YY    0.021457  -0.052807  -0.000002  -0.157447   0.014553
   22  C  1 ZZ   -0.010562   0.035309   0.000001   0.078704  -0.037651
   23  C  1 XY   -0.000001   0.000001  -0.022690   0.000003  -0.000001
   24  C  1 XZ    0.000000  -0.000002  -0.042417  -0.000006   0.000001
   25  C  1 YZ   -0.041244   0.097767   0.000001   0.004765   0.107090
   26  C  2  S   -0.001332  -0.000803   0.000000  -0.005534   0.005687
   27  C  2  S   -0.073017   0.049003   0.000000   0.040537   0.032795
   28  C  2  S   -0.231811   0.260039  -0.000005   0.415067   0.051604
   29  C  2  X   -0.000001  -0.000000  -0.127872   0.000001   0.000000
   30  C  2  Y   -0.084692  -0.045724  -0.000000  -0.143299   0.060454
   31  C  2  Z   -0.026776   0.023833   0.000000   0.005965  -0.074811
   32  C  2  X   -0.000002   0.000003  -0.144148   0.000011  -0.000002
   33  C  2  Y   -0.160910   0.104076   0.000001   0.118527  -0.134314
   34  C  2  Z   -0.242765   0.149478   0.000005   0.056215  -0.053714
   35  C  2 XX   -0.003353   0.001402   0.000000   0.001690  -0.009797
   36  C  2 YY   -0.001546   0.002263   0.000000  -0.000357  -0.013844
   37  C  2 ZZ    0.004900  -0.003665  -0.000000  -0.001333   0.023641
   38  C  2 XY    0.000000   0.000000  -0.004045   0.000000  -0.000000
   39  C  2 XZ   -0.000000   0.000000   0.013430   0.000000  -0.000000
   40  C  2 YZ    0.008309   0.007382  -0.000000   0.001639  -0.007034
   41  C  2  S   -0.504348   2.407488   0.000051  11.058482  -0.159363
   42  C  2  X   -0.000005   0.000002   0.594320  -0.000024  -0.000002
   43  C  2  Y   -0.542326   1.030589  -0.000000   0.312744  -0.049894
   44  C  2  Z   -0.600288  -0.265263  -0.000024  -4.183165   1.819724
   45  C  2 XX    0.007729  -0.041049  -0.000000  -0.076948   0.063481
   46  C  2 YY   -0.063851   0.035605   0.000001   0.087790  -0.024768
   47  C  2 ZZ    0.056121   0.005444  -0.000001  -0.010842  -0.038713
   48  C  2 XY    0.000000  -0.000000   0.039991  -0.000002   0.000000
   49  C  2 XZ    0.000000  -0.000001   0.014361  -0.000004   0.000001
   50  C  2 YZ   -0.070512   0.084229   0.000001   0.062602   0.081491
   51  H  3  S    0.016189   0.014654   0.000000  -0.023625  -0.021665
   52  H  3  S    0.665111  -0.567135  -0.000004  -0.867408   0.197984
   53  H  3  X   -0.000000   0.000000   0.005778  -0.000000  -0.000000
   54  H  3  Y    0.010438   0.000092  -0.000000   0.009988  -0.008624
   55  H  3  Z    0.008055  -0.000344  -0.000000   0.005151   0.006877
   56  H  3  S    2.534002  -1.458685   0.000015   3.504120  -0.093528
   57  H  3  X   -0.000001   0.000001  -0.040368   0.000003  -0.000001
   58  H  3  Y   -0.083436   0.139369   0.000001   0.143841  -0.086297
   59  H  3  Z   -0.019646   0.003830   0.000001   0.135359  -0.094442
   60  H  4  S   -0.009439   0.013001  -0.000000  -0.021010  -0.021448
   61  H  4  S   -0.457961  -0.440880   0.000004   0.597029  -0.327840
   62  H  4  X    0.000000  -0.000000   0.003491   0.000000   0.000000
   63  H  4  Y    0.007429   0.002709  -0.000000  -0.000183   0.003440
   64  H  4  Z    0.007285   0.002771  -0.000000  -0.010562  -0.011912
   65  H  4  S   -2.071532  -3.105002   0.000002   0.452179  -1.134454
   66  H  4  X    0.000000   0.000001  -0.069830  -0.000002   0.000000
   67  H  4  Y   -0.061731  -0.049908   0.000000   0.029009  -0.008401
   68  H  4  Z   -0.009526  -0.054244   0.000000   0.150573   0.025869
   69  H  5  S    0.002713  -0.002766   0.000000   0.026203  -0.039339
   70  H  5  S   -0.151832   0.863156   0.000017   0.413871   0.088853
   71  H  5  X    0.000000   0.000000   0.004185   0.000000  -0.000000
   72  H  5  Y   -0.002312   0.004301  -0.000000  -0.001174  -0.006249
   73  H  5  Z    0.003182  -0.007245   0.000000  -0.002142  -0.014005
   74  H  5  S   -0.451628   3.806648  -0.000011  -4.381217   0.527622
   75  H  5  X    0.000001  -0.000004  -0.032349  -0.000007   0.000000
   76  H  5  Y    0.063040  -0.094006  -0.000003  -0.003197  -0.090030
   77  H  5  Z    0.052307   0.068469   0.000002   0.103332   0.038880

                     16         17         18         19         20
                    0.1119     0.1125     0.1166     0.1284     0.1460
                     A          A          A          A          A   
    1  C  1  S    0.006182  -0.000001  -0.038668  -0.014936  -0.014690
    2  C  1  S   -0.058532   0.000011  -0.205156  -0.020752  -0.117428
    3  C  1  S   -1.008336   0.000149   0.312915   0.531912   0.516375
    4  C  1  X   -0.000045  -0.235976   0.000003  -0.000000  -0.000002
    5  C  1  Y    0.116555  -0.000024  -0.084065   0.237401   0.032725
    6  C  1  Z    0.003796  -0.000000   0.120991   0.004770   0.127131
    7  C  1  X   -0.000034  -0.185513   0.000017   0.000001  -0.000009
    8  C  1  Y   -0.425777   0.000088   0.285763  -0.937624  -0.164946
    9  C  1  Z   -1.228386   0.000183  -1.563331  -0.380999   1.576205
   10  C  1 XX    0.000125   0.000000   0.019989   0.016456  -0.039511
   11  C  1 YY    0.000042   0.000000   0.003986  -0.007786   0.048563
   12  C  1 ZZ   -0.000168  -0.000001  -0.023976  -0.008670  -0.009052
   13  C  1 XY   -0.000000  -0.001329   0.000000  -0.000000   0.000000
   14  C  1 XZ    0.000001   0.006930  -0.000000  -0.000000   0.000000
   15  C  1 YZ    0.024117  -0.000005  -0.007402   0.008592  -0.016371
   16  C  1  S   -5.750151   0.000816   5.061052   5.298248  -0.014687
   17  C  1  X    0.000433   2.233276  -0.000020  -0.000006  -0.000003
   18  C  1  Y   -0.363394   0.000149   1.831481  -6.066121  -2.435319
   19  C  1  Z   -3.646142   0.000553  -1.964143   1.684548   0.508789
   20  C  1 XX    0.049193  -0.000006  -0.161695  -0.038401  -0.096830
   21  C  1 YY    0.174369  -0.000027   0.340969   0.190659  -0.669429
   22  C  1 ZZ   -0.223562   0.000033  -0.179274  -0.152258   0.766259
   23  C  1 XY    0.000006   0.034324   0.000001   0.000001  -0.000003
   24  C  1 XZ    0.000009   0.056779   0.000006   0.000004  -0.000008
   25  C  1 YZ   -0.056731   0.000010  -0.010591   0.336083   0.310337
   26  C  2  S    0.009221  -0.000004  -0.035649  -0.025996   0.024621
   27  C  2  S    0.113535  -0.000027  -0.111541  -0.098419   0.011556
   28  C  2  S    0.452740  -0.000016   1.268095   0.768691  -2.190204
   29  C  2  X    0.000046   0.240887  -0.000004   0.000001   0.000001
   30  C  2  Y    0.179227  -0.000033  -0.007688   0.002209  -0.097868
   31  C  2  Z    0.057142  -0.000013  -0.085124  -0.008424  -0.068667
   32  C  2  X    0.000043   0.227946  -0.000017  -0.000003   0.000011
   33  C  2  Y   -0.382960   0.000088   0.129020   0.415495  -0.504852
   34  C  2  Z   -1.355068   0.000219  -0.911006   0.129652   1.118166
   35  C  2 XX   -0.005145   0.000001   0.005069   0.013083  -0.012072
   36  C  2 YY    0.006356  -0.000001   0.002769  -0.007741   0.018042
   37  C  2 ZZ   -0.001211   0.000000  -0.007837  -0.005341  -0.005970
   38  C  2 XY    0.000001   0.005930   0.000000   0.000000   0.000000
   39  C  2 XZ    0.000001   0.003912  -0.000000   0.000000   0.000000
   40  C  2 YZ   -0.015985   0.000003   0.004240  -0.016425   0.001599
   41  C  2  S    4.058353  -0.000368   2.606668  -0.918055  -1.797146
   42  C  2  X   -0.000437  -2.232373   0.000032   0.000001  -0.000004
   43  C  2  Y   -2.796075   0.000471  -0.795049   3.543749   0.692477
   44  C  2  Z   -4.170207   0.000677  -0.179284   2.257072   1.064630
   45  C  2 XX    0.009550  -0.000010  -0.126740  -0.068968  -0.022742
   46  C  2 YY   -0.312242   0.000055  -0.131164   0.044854   0.200963
   47  C  2 ZZ    0.302692  -0.000046   0.257903   0.024113  -0.178222
   48  C  2 XY   -0.000012  -0.062213  -0.000002  -0.000002   0.000003
   49  C  2 XZ    0.000016   0.086515   0.000005   0.000001  -0.000004
   50  C  2 YZ   -0.245484   0.000052   0.088449   0.136734   0.195164
   51  H  3  S   -0.018823   0.000004   0.013454  -0.087979   0.106427
   52  H  3  S    2.288153  -0.000474  -0.493157  -1.793107   0.587925
   53  H  3  X   -0.000000   0.000700   0.000000   0.000000  -0.000000
   54  H  3  Y   -0.020051   0.000004   0.011245   0.011247  -0.008178
   55  H  3  Z   -0.011445   0.000002  -0.001946   0.015373  -0.005554
   56  H  3  S    6.196366  -0.001116   0.239798  -3.903662  -0.790069
   57  H  3  X    0.000017   0.119391   0.000004   0.000007  -0.000001
   58  H  3  Y   -0.625916   0.000133   0.240487   0.286500   0.234153
   59  H  3  Z   -0.376096   0.000076   0.061345   0.159439  -0.139540
   60  H  4  S    0.028639  -0.000006  -0.004049  -0.056383   0.094314
   61  H  4  S   -1.063995   0.000194  -1.705854  -3.132851   0.758637
   62  H  4  X    0.000000   0.000422   0.000000   0.000000  -0.000000
   63  H  4  Y   -0.010981   0.000002  -0.009636  -0.022644  -0.023473
   64  H  4  Z   -0.009504   0.000002  -0.001316  -0.011090   0.005847
   65  H  4  S   -3.934298   0.000741  -0.833313  -5.127344  -1.937307
   66  H  4  X   -0.000018  -0.089612   0.000006   0.000006  -0.000008
   67  H  4  Y   -0.329085   0.000058  -0.443001  -0.566950  -0.457187
   68  H  4  Z   -0.306318   0.000057  -0.217590  -0.581876   0.412448
   69  H  5  S   -0.017630   0.000002  -0.016981  -0.019796   0.225096
   70  H  5  S    0.012591  -0.000037  -2.703793   1.127456   2.852700
   71  H  5  X   -0.000000  -0.001555   0.000000  -0.000000  -0.000000
   72  H  5  Y   -0.008232   0.000002   0.026167  -0.016036   0.011036
   73  H  5  Z    0.000878  -0.000000  -0.013417   0.014617  -0.000221
   74  H  5  S   -1.182323   0.000092  -4.241802   6.618555   2.813980
   75  H  5  X   -0.000024  -0.122223   0.000011  -0.000003  -0.000005
   76  H  5  Y   -0.012936   0.000011   0.667129  -0.423911   0.129498
   77  H  5  Z    0.110139  -0.000025  -0.408307   0.165775   0.435891

                     21         22         23         24         25
                    0.1683     0.1955     0.2192     0.2521     0.2852
                     A          A          A          A          A   
    1  C  1  S    0.049623   0.018093  -0.000000  -0.005010  -0.008319
    2  C  1  S    0.161266   0.008894  -0.000001  -0.027918  -0.134871
    3  C  1  S   -2.122789  -0.517755   0.000005   0.700229   0.333863
    4  C  1  X    0.000004   0.000002   0.001013  -0.000000  -0.000001
    5  C  1  Y   -0.062569   0.129502  -0.000000  -0.200521   0.010521
    6  C  1  Z   -0.066330  -0.015273  -0.000001   0.076260  -0.010172
    7  C  1  X   -0.000005  -0.000013  -0.078723  -0.000011  -0.000008
    8  C  1  Y   -0.094280   0.605444   0.000005  -0.209999   0.047084
    9  C  1  Z   -0.995741   1.204281   0.000021   0.800948   2.287587
   10  C  1 XX    0.014605  -0.024746  -0.000000  -0.015048  -0.022883
   11  C  1 YY   -0.005664   0.025115   0.000000   0.019100  -0.073464
   12  C  1 ZZ   -0.008941  -0.000368   0.000000  -0.004053   0.096347
   13  C  1 XY   -0.000000  -0.000001   0.047021  -0.000000  -0.000000
   14  C  1 XZ    0.000000   0.000001  -0.002120   0.000000  -0.000000
   15  C  1 YZ   -0.037366   0.038645   0.000002  -0.031294  -0.014468
   16  C  1  S  -18.383994 -20.197230  -0.000412 -10.841883   2.153620
   17  C  1  X   -0.000014  -0.000009   0.018314  -0.000012  -0.000018
   18  C  1  Y   -0.157568   2.483845   0.000055  -1.642521  -0.950268
   19  C  1  Z   -6.291346  -5.662325  -0.000113  -2.496738   4.004172
   20  C  1 XX    0.181266   0.117676   0.000001   0.080394  -0.266615
   21  C  1 YY    0.138288  -0.547053  -0.000008  -0.243185   0.163947
   22  C  1 ZZ   -0.319553   0.429377   0.000007   0.162791   0.102668
   23  C  1 XY    0.000006   0.000008  -0.169647   0.000006   0.000005
   24  C  1 XZ   -0.000011  -0.000021  -0.024571  -0.000012   0.000003
   25  C  1 YZ    0.434106  -0.232419  -0.000014   0.846958   0.217325
   26  C  2  S   -0.045983  -0.016783  -0.000000  -0.004438   0.033443
   27  C  2  S   -0.198893  -0.046554   0.000000  -0.003559   0.159785
   28  C  2  S    1.620392  -0.490658  -0.000010  -0.440474  -0.522875
   29  C  2  X   -0.000005  -0.000002  -0.041380   0.000000   0.000000
   30  C  2  Y   -0.038022   0.058323   0.000002   0.291294  -0.038926
   31  C  2  Z   -0.106628  -0.010496   0.000000   0.025216  -0.253983
   32  C  2  X    0.000010   0.000030  -0.231042   0.000019  -0.000001
   33  C  2  Y   -0.113817   0.819717   0.000026   0.397652   0.432649
   34  C  2  Z   -1.191580   1.104996   0.000026   0.815241   1.429085
   35  C  2 XX   -0.016293   0.012118   0.000001   0.014268   0.028130
   36  C  2 YY    0.011615   0.002822  -0.000000  -0.021784   0.020487
   37  C  2 ZZ    0.004678  -0.014941  -0.000001   0.007517  -0.048617
   38  C  2 XY    0.000001  -0.000000   0.022544   0.000000   0.000000
   39  C  2 XZ    0.000000  -0.000000   0.008901   0.000000   0.000000
   40  C  2 YZ    0.016809  -0.052938  -0.000001   0.009860  -0.005537
   41  C  2  S   18.699638  20.323615   0.000416  11.494233  -3.890297
   42  C  2  X    0.000014   0.000018  -0.173916   0.000014   0.000009
   43  C  2  Y   -1.645878  -0.999312  -0.000015   1.516993   1.285954
   44  C  2  Z   -6.116612  -5.092225  -0.000099  -2.596344   1.497232
   45  C  2 XX   -0.183642  -0.157196  -0.000002  -0.012010   0.184664
   46  C  2 YY   -0.156369   0.205950   0.000002   0.206516   0.177588
   47  C  2 ZZ    0.340011  -0.048754  -0.000000  -0.194506  -0.362252
   48  C  2 XY    0.000000  -0.000007   0.250093  -0.000002  -0.000005
   49  C  2 XZ   -0.000008  -0.000012  -0.115243  -0.000009  -0.000001
   50  C  2 YZ    0.332508   0.254795   0.000002   0.609863   0.302101
   51  H  3  S    0.172894  -0.179381  -0.000005  -0.092752  -0.020162
   52  H  3  S   -0.341742  -2.971119  -0.000064  -2.934471  -2.066017
   53  H  3  X   -0.000000  -0.000000  -0.003997  -0.000000   0.000000
   54  H  3  Y    0.013041  -0.002013  -0.000000  -0.003820   0.002963
   55  H  3  Z    0.005749  -0.007343  -0.000000  -0.004240  -0.010682
   56  H  3  S    3.113735   1.639473   0.000032   0.304545  -2.652163
   57  H  3  X    0.000002  -0.000006   0.536711  -0.000001   0.000014
   58  H  3  Y    0.604968   0.626048   0.000009  -0.219183   0.672585
   59  H  3  Z    0.164185  -0.207107  -0.000013   0.194886   0.272621
   60  H  4  S   -0.160143   0.220591   0.000005   0.012913   0.022019
   61  H  4  S   -0.560673   3.621635   0.000070  -0.649783   1.108994
   62  H  4  X    0.000000   0.000000  -0.000473  -0.000000   0.000000
   63  H  4  Y    0.020426   0.001179  -0.000000   0.000025   0.015816
   64  H  4  Z    0.021402  -0.002064  -0.000000   0.024863  -0.008592
   65  H  4  S   -2.023628   0.931068   0.000039  -0.460450   0.941047
   66  H  4  X   -0.000002   0.000006  -0.721620  -0.000000   0.000011
   67  H  4  Y    0.155241   0.181759   0.000010  -0.328890   0.583655
   68  H  4  Z    0.219428   0.127963  -0.000008   0.453823  -0.857615
   69  H  5  S    0.024015  -0.056323  -0.000001   0.155144   0.047802
   70  H  5  S    1.525481   0.968101   0.000007   2.782826   1.860287
   71  H  5  X    0.000000   0.000000   0.003060   0.000000  -0.000000
   72  H  5  Y   -0.016175   0.002120  -0.000000   0.016628  -0.012787
   73  H  5  Z   -0.007570   0.017005   0.000001  -0.017441  -0.017304
   74  H  5  S   -1.447024  -3.010698  -0.000077  -0.149810   2.670395
   75  H  5  X   -0.000011  -0.000033   0.830022  -0.000014  -0.000005
   76  H  5  Y   -0.480902  -0.026092   0.000006  -0.029902  -0.813304
   77  H  5  Z   -0.026869   0.597202   0.000015  -0.489312  -0.900782

                     26         27         28         29         30
                    0.3086     0.3158     0.3553     0.3775     0.4042
                     A          A          A          A          A   
    1  C  1  S   -0.000000  -0.031985  -0.000003  -0.020422   0.040306
    2  C  1  S    0.000005  -0.134592  -0.000004  -0.060326  -0.016941
    3  C  1  S    0.000004   1.551536   0.000137   1.748278  -2.086861
    4  C  1  X   -0.061869  -0.000003  -0.245935   0.000002  -0.000001
    5  C  1  Y    0.000007  -0.135688   0.000001   0.278058   0.054408
    6  C  1  Z    0.000012  -0.256428  -0.000001  -0.074608  -0.000875
    7  C  1  X   -0.330119  -0.000024  -0.974561   0.000009   0.000006
    8  C  1  Y   -0.000023   0.228046   0.000062   3.085033   0.355397
    9  C  1  Z   -0.000149   2.483309   0.000013   1.808324  -1.830817
   10  C  1 XX    0.000001  -0.028327  -0.000001  -0.013823   0.018399
   11  C  1 YY    0.000001  -0.000330   0.000000   0.007725   0.009452
   12  C  1 ZZ   -0.000002   0.028657   0.000001   0.006098  -0.027851
   13  C  1 XY   -0.034577  -0.000002   0.011243   0.000001   0.000000
   14  C  1 XZ   -0.019005  -0.000001  -0.029456  -0.000000   0.000000
   15  C  1 YZ    0.000001  -0.022402  -0.000000  -0.049857  -0.010601
   16  C  1  S   -0.000249   4.802917   0.000017   0.159155  -6.164324
   17  C  1  X   -0.122226  -0.000018  -1.113624   0.000018   0.000001
   18  C  1  Y    0.000172  -3.582836   0.000028   4.862047   1.640265
   19  C  1  Z   -0.000103   1.442244  -0.000013  -0.000474  -1.786393
   20  C  1 XX    0.000004  -0.091167  -0.000009  -0.097363   0.532923
   21  C  1 YY    0.000040  -0.583640   0.000010  -0.335235   0.609010
   22  C  1 ZZ   -0.000044   0.674807  -0.000000   0.432598  -1.141934
   23  C  1 XY    0.511141   0.000025  -0.226265  -0.000006  -0.000004
   24  C  1 XZ    0.034624   0.000000   0.071764   0.000003  -0.000009
   25  C  1 YZ   -0.000038   1.018138  -0.000010   0.251976   0.246929
   26  C  2  S   -0.000003   0.029627   0.000001   0.010164   0.032632
   27  C  2  S   -0.000008   0.114254   0.000001   0.028009  -0.011880
   28  C  2  S    0.000151  -1.610755  -0.000045  -0.603542  -0.291531
   29  C  2  X   -0.110436  -0.000005   0.046366  -0.000001   0.000001
   30  C  2  Y   -0.000001   0.034135  -0.000000   0.034577  -0.200225
   31  C  2  Z    0.000001   0.008821   0.000001  -0.020603   0.036962
   32  C  2  X   -0.660492  -0.000025   0.457510  -0.000005   0.000008
   33  C  2  Y    0.000038  -0.375755  -0.000003   0.250939  -2.268983
   34  C  2  Z   -0.000141   3.160451   0.000037   2.027572  -2.927119
   35  C  2 XX   -0.000001   0.029351   0.000000   0.006736   0.005671
   36  C  2 YY   -0.000003   0.052315   0.000000   0.011435  -0.021821
   37  C  2 ZZ    0.000004  -0.081666  -0.000001  -0.018171   0.016150
   38  C  2 XY    0.035508   0.000002  -0.010475   0.000000  -0.000000
   39  C  2 XZ    0.024067   0.000001   0.015200  -0.000000   0.000000
   40  C  2 YZ    0.000001  -0.022003  -0.000000   0.006706  -0.006113
   41  C  2  S    0.000256  -3.800272   0.000000   0.592558   0.651847
   42  C  2  X   -0.445517  -0.000010   0.541279  -0.000006  -0.000003
   43  C  2  Y   -0.000121   2.672046  -0.000006  -0.632032  -2.763988
   44  C  2  Z   -0.000187   3.809157   0.000005   0.577840  -1.840438
   45  C  2 XX   -0.000021   0.374849   0.000005   0.126002   0.898100
   46  C  2 YY   -0.000012   0.434465   0.000010   0.805012  -0.961229
   47  C  2 ZZ    0.000033  -0.809313  -0.000015  -0.931013   0.063129
   48  C  2 XY   -0.364572  -0.000019  -0.176197   0.000002   0.000011
   49  C  2 XZ   -0.133028  -0.000008   0.323098  -0.000001   0.000005
   50  C  2 YZ   -0.000046   1.160446   0.000002   0.697678   0.130602
   51  H  3  S    0.000001  -0.015652   0.000001   0.059956  -0.033327
   52  H  3  S    0.000079  -3.211386  -0.000005  -3.343975   6.793273
   53  H  3  X    0.005032   0.000000   0.000221  -0.000000   0.000000
   54  H  3  Y    0.000000  -0.000349  -0.000000   0.000212   0.001978
   55  H  3  Z    0.000002  -0.034867  -0.000000  -0.009199   0.009022
   56  H  3  S    0.000142  -2.908256   0.000005  -0.550447   2.998488
   57  H  3  X    1.506990   0.000077  -0.399836   0.000013  -0.000031
   58  H  3  Y   -0.000037   1.090032   0.000002   0.485494  -1.467960
   59  H  3  Z    0.000062  -1.050440  -0.000008   0.746551  -0.846497
   60  H  4  S    0.000003  -0.049268  -0.000000   0.026254   0.037224
   61  H  4  S   -0.000063  -0.404346   0.000047   4.398731   0.240043
   62  H  4  X    0.004726   0.000000  -0.011844   0.000000  -0.000000
   63  H  4  Y   -0.000000  -0.000749  -0.000000   0.004880   0.003986
   64  H  4  Z   -0.000000   0.003213  -0.000000   0.002380   0.000486
   65  H  4  S    0.000055  -1.285384   0.000014   4.153823   0.251923
   66  H  4  X    1.308478   0.000066   0.718714  -0.000029  -0.000005
   67  H  4  Y   -0.000038   0.189607   0.000013  -0.082176  -0.289815
   68  H  4  Z   -0.000045   0.764311   0.000003   1.565265  -0.411066
   69  H  5  S   -0.000002   0.043720  -0.000001   0.012847   0.024531
   70  H  5  S   -0.000182   3.365944  -0.000132  -2.726586   0.382349
   71  H  5  X   -0.006388  -0.000000  -0.010023   0.000000   0.000000
   72  H  5  Y   -0.000000   0.008434   0.000000   0.014167   0.001048
   73  H  5  Z    0.000001  -0.032523  -0.000000  -0.018002   0.001702
   74  H  5  S   -0.000190   3.656710  -0.000025  -3.882892  -1.013331
   75  H  5  X   -0.455111  -0.000037   1.618301   0.000013  -0.000006
   76  H  5  Y    0.000031  -0.571906   0.000034  -0.378894  -0.194589
   77  H  5  Z   -0.000027   0.393869  -0.000028  -0.880338  -0.220472

                     31         32         33         34         35
                    0.4388     0.4446     0.4493     0.4763     0.4813
                     A          A          A          A          A   
    1  C  1  S    0.064993   0.015646   0.000010   0.024453   0.000001
    2  C  1  S    0.031062  -0.042951   0.000003  -0.028956   0.000017
    3  C  1  S   -4.249867   0.633307  -0.000546  -2.353392   0.000140
    4  C  1  X   -0.000015  -0.000011   0.249463   0.000009   0.057027
    5  C  1  Y    0.028951  -0.072428  -0.000003  -0.123248   0.000015
    6  C  1  Z    0.091530   0.010669   0.000009  -0.024524   0.000032
    7  C  1  X   -0.000140  -0.000105   1.827109   0.000070   0.373665
    8  C  1  Y   -0.551722   1.142325   0.000057  -3.877678   0.000688
    9  C  1  Z    6.073889   3.528531   0.000252  -1.152924  -0.000042
   10  C  1 XX    0.017850  -0.007788   0.000002  -0.012554   0.000004
   11  C  1 YY   -0.026703  -0.004950  -0.000001   0.013546  -0.000001
   12  C  1 ZZ    0.008854   0.012738  -0.000001  -0.000992  -0.000002
   13  C  1 XY   -0.000001  -0.000000   0.001783   0.000001   0.004490
   14  C  1 XZ    0.000002   0.000001  -0.014676   0.000005   0.030287
   15  C  1 YZ    0.018731   0.010324   0.000002  -0.006830  -0.000003
   16  C  1  S   -7.083596  -3.851507  -0.000645   3.871593  -0.000929
   17  C  1  X   -0.000085  -0.000059   1.146944  -0.000028  -0.132840
   18  C  1  Y   -0.539160   1.593469   0.000036  -0.903946   0.000144
   19  C  1  Z    1.087205   0.326725   0.000046   0.791010  -0.000220
   20  C  1 XX    0.587011   0.290974   0.000060  -0.457132   0.000103
   21  C  1 YY   -1.949932  -0.647124  -0.000039   0.564175   0.000089
   22  C  1 ZZ    1.362921   0.356150  -0.000021  -0.107042  -0.000192
   23  C  1 XY    0.000014   0.000020  -0.246654   0.000061   0.350974
   24  C  1 XZ   -0.000088  -0.000043  -0.106175  -0.000271  -1.414582
   25  C  1 YZ    0.587836  -2.664019  -0.000092  -0.010788   0.000008
   26  C  2  S    0.061682   0.026182  -0.000001   0.050932  -0.000018
   27  C  2  S   -0.003065  -0.032183  -0.000007   0.017131  -0.000010
   28  C  2  S   -6.422930  -2.300236  -0.000056  -3.926868   0.001578
   29  C  2  X    0.000018   0.000015  -0.262536   0.000046   0.246352
   30  C  2  Y    0.124459   0.062635   0.000011  -0.134340   0.000017
   31  C  2  Z    0.034707  -0.076566  -0.000000  -0.183324   0.000060
   32  C  2  X    0.000138   0.000088  -0.704618   0.000289   1.516735
   33  C  2  Y   -0.685429   3.111424   0.000100  -1.532363   0.000406
   34  C  2  Z    3.221308   2.482785   0.000041  -2.631784   0.000362
   35  C  2 XX    0.033090  -0.002576  -0.000000  -0.010732  -0.000003
   36  C  2 YY   -0.012782   0.027367   0.000000   0.015728  -0.000002
   37  C  2 ZZ   -0.020308  -0.024791  -0.000000  -0.004997   0.000005
   38  C  2 XY   -0.000001   0.000000   0.004668  -0.000001  -0.003931
   39  C  2 XZ    0.000002   0.000001  -0.015541  -0.000000  -0.002746
   40  C  2 YZ   -0.020693   0.055502   0.000002   0.010808  -0.000000
   41  C  2  S   -0.486664   1.193258   0.000137  -4.880503   0.001555
   42  C  2  X    0.000084   0.000068  -1.195945   0.000098   0.512897
   43  C  2  Y    0.502933   0.029405   0.000019  -0.212894   0.000094
   44  C  2  Z   -0.247239  -0.141943  -0.000051   0.173856  -0.000056
   45  C  2 XX    0.037222   0.179092  -0.000008  -0.150527  -0.000017
   46  C  2 YY    0.509405   1.321084   0.000055   0.096631  -0.000111
   47  C  2 ZZ   -0.546627  -1.500176  -0.000047   0.053896   0.000127
   48  C  2 XY    0.000063   0.000046  -0.664525   0.000205   0.993899
   49  C  2 XZ   -0.000082  -0.000070   1.079393   0.000078   0.342360
   50  C  2 YZ   -0.318827  -0.858501  -0.000072  -0.456838   0.000190
   51  H  3  S   -0.089110   0.189896   0.000001   0.113723  -0.000012
   52  H  3  S    0.974409  -2.878943  -0.000032   6.587477  -0.001773
   53  H  3  X    0.000001   0.000001  -0.017558   0.000004   0.022023
   54  H  3  Y   -0.018715   0.013960   0.000000   0.029572  -0.000005
   55  H  3  Z   -0.020454   0.025226   0.000001   0.001279   0.000002
   56  H  3  S   -0.069116  -0.197613  -0.000007   0.894836  -0.000299
   57  H  3  X   -0.000072  -0.000048   0.758714  -0.000307  -1.427264
   58  H  3  Y   -0.336310  -0.294229  -0.000035  -3.296621   0.000852
   59  H  3  Z   -0.111607   1.366155   0.000069  -0.813115   0.000107
   60  H  4  S   -0.044420  -0.085023   0.000001   0.040032  -0.000006
   61  H  4  S    6.378045   9.157026   0.000757  -6.383686   0.000870
   62  H  4  X   -0.000001  -0.000001   0.016966  -0.000001  -0.004247
   63  H  4  Y    0.007163  -0.018248  -0.000000   0.003647  -0.000001
   64  H  4  Z   -0.005055  -0.010307  -0.000000  -0.004415   0.000004
   65  H  4  S    1.477826   1.860122   0.000156  -0.955043   0.000117
   66  H  4  X    0.000039   0.000044  -1.282709  -0.000020  -0.158583
   67  H  4  Y    1.138837   2.952296   0.000261  -1.695905   0.000280
   68  H  4  Z    1.881519   0.065354   0.000090  -1.284090   0.000082
   69  H  5  S   -0.173791   0.098141  -0.000000   0.100677   0.000007
   70  H  5  S    9.112669  -2.690580   0.000229   4.904073  -0.000980
   71  H  5  X   -0.000000   0.000000   0.007977   0.000003   0.014255
   72  H  5  Y   -0.006704  -0.005300  -0.000001   0.022015  -0.000003
   73  H  5  Z    0.006425  -0.004230   0.000000   0.005482  -0.000001
   74  H  5  S    1.515874  -0.453812   0.000069   0.853524  -0.000124
   75  H  5  X   -0.000046  -0.000000  -0.436475  -0.000239  -1.186022
   76  H  5  Y   -2.152510   1.493131  -0.000039  -2.624955   0.000366
   77  H  5  Z    1.105086   0.967411   0.000066   1.410870  -0.000340

                     36         37         38         39         40
                    0.4868     0.4945     0.5040     0.5563     0.5638
                     A          A          A          A          A   
    1  C  1  S    0.014328   0.104043  -0.024389   0.077574   0.000004
    2  C  1  S   -0.106246   0.001759  -0.022307   0.017114  -0.000003
    3  C  1  S   -1.760720  -8.257309   4.292510  -8.263159  -0.000283
    4  C  1  X    0.000001  -0.000015   0.000002  -0.000011   0.070415
    5  C  1  Y    0.186857  -0.003266  -0.110328  -0.067449  -0.000010
    6  C  1  Z   -0.230920   0.332621  -0.071413  -0.156753  -0.000004
    7  C  1  X    0.000020  -0.000068  -0.000034  -0.000012   1.333352
    8  C  1  Y   -0.428112  -0.821455  -7.028602  -0.403120  -0.000035
    9  C  1  Z   -2.684881  -2.745963   1.242279  -1.610637  -0.000672
   10  C  1 XX   -0.009538   0.009840  -0.004882   0.025268  -0.000000
   11  C  1 YY    0.011857   0.031986  -0.009220  -0.008069   0.000001
   12  C  1 ZZ   -0.002319  -0.041826   0.014101  -0.017199  -0.000001
   13  C  1 XY    0.000000  -0.000001  -0.000001  -0.000000   0.003066
   14  C  1 XZ    0.000002  -0.000002   0.000000  -0.000001  -0.056132
   15  C  1 YZ    0.058694  -0.006318   0.012140  -0.026666   0.000002
   16  C  1  S    3.643055  -5.097152  -4.758831 -14.701395  -0.000073
   17  C  1  X   -0.000015  -0.000026  -0.000001   0.000003   0.214376
   18  C  1  Y   -0.216897  -0.595963  -1.899611   0.907850   0.000126
   19  C  1  Z    0.209421  -0.256765  -0.934071  -4.887077  -0.000021
   20  C  1 XX   -0.212372   0.298732   0.600943  -0.027402   0.000090
   21  C  1 YY    0.461040   2.680486  -0.608291  -1.855719   0.000139
   22  C  1 ZZ   -0.248668  -2.979219   0.007348   1.883122  -0.000229
   23  C  1 XY    0.000017   0.000008   0.000009   0.000065   1.598567
   24  C  1 XZ   -0.000058   0.000108  -0.000029  -0.000010   2.242462
   25  C  1 YZ    0.872381   0.476222   0.242137   0.082004  -0.000194
   26  C  2  S   -0.012735  -0.090204  -0.034131  -0.050726  -0.000006
   27  C  2  S    0.084699  -0.083328  -0.020135   0.137720  -0.000009
   28  C  2  S    2.684963  10.227182   3.044358   2.926672   0.000496
   29  C  2  X    0.000019  -0.000008  -0.000002  -0.000016  -0.319474
   30  C  2  Y    0.074563  -0.022512  -0.016137   0.007141   0.000014
   31  C  2  Z   -0.184071   0.190605   0.011798  -0.098445  -0.000016
   32  C  2  X    0.000076  -0.000092   0.000032   0.000030  -1.473385
   33  C  2  Y   -0.450092   1.019421   3.327320   0.771364  -0.000027
   34  C  2  Z   -2.908625  -3.103949   2.450356  -1.462555  -0.000665
   35  C  2 XX    0.011895  -0.050995   0.000818   0.012150  -0.000001
   36  C  2 YY   -0.015679   0.003847   0.008125  -0.026420   0.000000
   37  C  2 ZZ    0.003784   0.047148  -0.008944   0.014270   0.000001
   38  C  2 XY   -0.000001   0.000001   0.000001   0.000001   0.027208
   39  C  2 XZ   -0.000000   0.000001   0.000000   0.000001  -0.033325
   40  C  2 YZ   -0.031376   0.006762   0.011817  -0.012601   0.000004
   41  C  2  S   -3.501799   5.503607   5.753958  15.678915  -0.000089
   42  C  2  X    0.000039   0.000000  -0.000002  -0.000017  -0.379577
   43  C  2  Y   -0.148801   0.462796   1.007903  -1.188676  -0.000090
   44  C  2  Z    0.283425  -0.729337  -0.661454  -3.829060  -0.000077
   45  C  2 XX    0.224647  -0.341199  -0.036213  -0.375875  -0.000043
   46  C  2 YY    0.343544  -0.594386   1.443775  -0.860954  -0.000057
   47  C  2 ZZ   -0.568191   0.935585  -1.407562   1.236829   0.000100
   48  C  2 XY    0.000081  -0.000064  -0.000032  -0.000034   0.050139
   49  C  2 XZ    0.000028  -0.000046  -0.000033  -0.000005   1.885516
   50  C  2 YZ   -0.937322   0.313911  -0.393242   0.970632  -0.000216
   51  H  3  S   -0.183602  -0.030235   0.052931  -0.150441   0.000005
   52  H  3  S    1.794343  -3.942022  -7.430147  -3.099165   0.000696
   53  H  3  X    0.000002  -0.000001  -0.000000  -0.000001  -0.001543
[...]
 II,JST,KST,LST =  1  1  1  1 NREC =         1 INTLOC =    1
 II,JST,KST,LST =  2  1  1  1 NREC =         1 INTLOC =    1
 II,JST,KST,LST =  3  1  1  1 NREC =         1 INTLOC =    1
 II,JST,KST,LST =  4  1  1  1 NREC =         1 INTLOC =    1
 II,JST,KST,LST =  5  1  1  1 NREC =         1 INTLOC =    1
 II,JST,KST,LST =  6  1  1  1 NREC =         1 INTLOC =    1
 II,JST,KST,LST =  7  1  1  1 NREC =         1 INTLOC =    4
 II,JST,KST,LST =  8  1  1  1 NREC =         1 INTLOC =   49
 II,JST,KST,LST =  9  1  1  1 NREC =         1 INTLOC =   49
 II,JST,KST,LST = 10  1  1  1 NREC =         1 INTLOC =  448
 II,JST,KST,LST = 11  1  1  1 NREC =         1 INTLOC =  448
 II,JST,KST,LST = 12  1  1  1 NREC =         1 INTLOC =  486
 II,JST,KST,LST = 13  1  1  1 NREC =         1 INTLOC =  808
 II,JST,KST,LST = 14  1  1  1 NREC =         1 INTLOC = 4350
 II,JST,KST,LST = 15  1  1  1 NREC =         1 INTLOC = 4350
 II,JST,KST,LST = 16  1  1  1 NREC =         1 INTLOC = 4350
 II,JST,KST,LST = 17  1  1  1 NREC =         1 INTLOC = 5486
 II,JST,KST,LST = 18  1  1  1 NREC =         1 INTLOC = 5486
 II,JST,KST,LST = 19  1  1  1 NREC =         2 INTLOC = 8003
 II,JST,KST,LST = 20  1  1  1 NREC =         2 INTLOC = 8003
 II,JST,KST,LST = 21  1  1  1 NREC =         2 INTLOC = 8003
 II,JST,KST,LST = 22  1  1  1 NREC =         2 INTLOC = 8003
 II,JST,KST,LST = 23  1  1  1 NREC =         2 INTLOC =11993
 II,JST,KST,LST = 24  1  1  1 NREC =         5 INTLOC = 2441
 II,JST,KST,LST = 25  1  1  1 NREC =         5 INTLOC = 2441
 II,JST,KST,LST = 26  1  1  1 NREC =         5 INTLOC = 6218
 II,JST,KST,LST = 27  1  1  1 NREC =         6 INTLOC = 2517
 II,JST,KST,LST = 28  1  1  1 NREC =         7 INTLOC = 2710
 II,JST,KST,LST = 29  1  1  1 NREC =         8 INTLOC = 9902
 II,JST,KST,LST = 30  1  1  1 NREC =         9 INTLOC = 1925
 II,JST,KST,LST = 31  1  1  1 NREC =        10 INTLOC = 2266
 II,JST,KST,LST = 32  1  1  1 NREC =        11 INTLOC = 7186
 II,JST,KST,LST = 33  1  1  1 NREC =        11 INTLOC =12488
 II,JST,KST,LST = 34  1  1  1 NREC =        13 INTLOC = 5688
 II,JST,KST,LST = 35  1  1  1 NREC =        14 INTLOC = 5340
 II,JST,KST,LST = 36  1  1  1 NREC =        15 INTLOC =  871
 II,JST,KST,LST = 37  1  1  1 NREC =        17 INTLOC = 7394
 II,JST,KST,LST = 38  1  1  1 NREC =        20 INTLOC = 1159
 II,JST,KST,LST = 39  1  1  1 NREC =        23 INTLOC =12942
 II,JST,KST,LST = 40  1  1  1 NREC =        31 INTLOC =13036
 II,JST,KST,LST = 41  1  1  1 NREC =        32 INTLOC = 5139
 II,JST,KST,LST = 42  1  1  1 NREC =        34 INTLOC =10697
 II,JST,KST,LST = 43  1  1  1 NREC =        41 INTLOC = 6960
 II,JST,KST,LST = 44  1  1  1 NREC =        47 INTLOC = 4335
 II,JST,KST,LST = 45  1  1  1 NREC =        47 INTLOC = 4335
 II,JST,KST,LST = 46  1  1  1 NREC =        50 INTLOC =12478
 II,JST,KST,LST = 47  1  1  1 NREC =        54 INTLOC = 1111
 II,JST,KST,LST = 48  1  1  1 NREC =        74 INTLOC =12052
 II,JST,KST,LST = 49  1  1  1 NREC =        80 INTLOC = 6255
 II,JST,KST,LST = 50  1  1  1 NREC =        87 INTLOC = 5261
 II,JST,KST,LST = 51  1  1  1 NREC =       107 INTLOC = 4501
 II,JST,KST,LST = 52  1  1  1 NREC =       139 INTLOC = 9155
 II,JST,KST,LST = 53  1  1  1 NREC =       139 INTLOC = 9155
 II,JST,KST,LST = 54  1  1  1 NREC =       142 INTLOC = 2994
 II,JST,KST,LST = 55  1  1  1 NREC =       153 INTLOC =13656
 II,JST,KST,LST = 56  1  1  1 NREC =       155 INTLOC =  811
 II,JST,KST,LST = 57  1  1  1 NREC =       166 INTLOC = 1555
 II,JST,KST,LST = 58  1  1  1 NREC =       170 INTLOC = 2586
 II,JST,KST,LST = 59  1  1  1 NREC =       178 INTLOC = 6095
 II,JST,KST,LST = 60  1  1  1 NREC =       187 INTLOC = 3112
 II,JST,KST,LST = 61  1  1  1 NREC =       193 INTLOC = 4835
 II,JST,KST,LST = 62  1  1  1 NREC =       200 INTLOC = 3654
 II,JST,KST,LST = 63  1  1  1 NREC =       205 INTLOC = 6962
 II,JST,KST,LST = 64  1  1  1 NREC =       212 INTLOC = 8711
 II,JST,KST,LST = 65  1  1  1 NREC =       225 INTLOC = 9008
 II,JST,KST,LST = 66  1  1  1 NREC =       232 INTLOC = 3226
 SCHWARZ INEQUALITY TEST SKIPPED       33831 INTEGRAL BLOCKS.
 TOTAL NUMBER OF NONZERO TWO-ELECTRON INTEGRALS =            56919177
       3803 INTEGRAL RECORDS WERE STORED ON DISK FILE  8.
  ...... END OF TWO-ELECTRON INTEGRALS .....
 CPU     0: STEP CPU TIME=     0.27 TOTAL CPU TIME=         23.6 (      0.4 MIN)
 TOTAL WALL CLOCK TIME=         23.9 SECONDS, CPU UTILIZATION IS    98.37%

          ---------------------------------------------
          MONOMER ELECTROSTATIC INTERACTION (OWN BASIS)
          ---------------------------------------------

          -------------
          GUESS OPTIONS
          -------------
          GUESS =MOSAVED           NORB  =       0          NORDER=       0
          MIX   =       F          PRTMO =       F          PUNMO =       F
          TOLZ  = 1.0E-08          TOLE  = 1.0E-05
          SYMDEN=       F          PURIFY=       F

 INITIAL GUESS ORBITALS GENERATED BY MOSAVED  ROUTINE.

 STATISTICS FOR GENERATION OF SYMMETRY ORBITAL -Q- MATRIX
 NUMBER OF CARTESIAN ATOMIC ORBITALS=        154
 NUMBER OF SPHERICAL CONTAMINANTS DROPPED=     8
 NUMBER OF LINEARLY DEPENDENT MOS DROPPED=     0
 TOTAL NUMBER OF MOS IN VARIATION SPACE=     146
 ...... END OF INITIAL ORBITAL SELECTION ......
 CPU     0: STEP CPU TIME=     0.01 TOTAL CPU TIME=         23.6 (      0.4 MIN)
 TOTAL WALL CLOCK TIME=         24.0 SECONDS, CPU UTILIZATION IS    98.37%

          ---------------------------
                  UHF SCF CALCULATION
          ---------------------------

 FINAL UHF ENERGY IS     -155.2967327775 AFTER   1 ITERATIONS
 ...... END OF UHF CALCULATION ......
 CPU     0: STEP CPU TIME=     0.07 TOTAL CPU TIME=         23.6 (      0.4 MIN)
 TOTAL WALL CLOCK TIME=         24.0 SECONDS, CPU UTILIZATION IS    98.36%

          -------------
          GUESS OPTIONS
          -------------
          GUESS =MOSAVED           NORB  =       0          NORDER=       0
          MIX   =       F          PRTMO =       F          PUNMO =       F
          TOLZ  = 1.0E-08          TOLE  = 1.0E-05
          SYMDEN=       F          PURIFY=       F

 INITIAL GUESS ORBITALS GENERATED BY MOSAVED  ROUTINE.

 STATISTICS FOR GENERATION OF SYMMETRY ORBITAL -Q- MATRIX
 NUMBER OF CARTESIAN ATOMIC ORBITALS=        154
 NUMBER OF SPHERICAL CONTAMINANTS DROPPED=     8
 NUMBER OF LINEARLY DEPENDENT MOS DROPPED=     0
 TOTAL NUMBER OF MOS IN VARIATION SPACE=     146
 ...... END OF INITIAL ORBITAL SELECTION ......
 CPU     0: STEP CPU TIME=     0.01 TOTAL CPU TIME=         23.6 (      0.4 MIN)
 TOTAL WALL CLOCK TIME=         24.0 SECONDS, CPU UTILIZATION IS    98.36%

          ---------------------------
                  UHF SCF CALCULATION
          ---------------------------

 DIRECT SCF CALCULATION, SCHWRZ=T   FDIFF=T
 SCHWARZ INEQUALITY OVERHEAD:     11935 INTEGRALS, T=        0.00

 FINAL UHF ENERGY IS     -332.0370893130 AFTER   1 ITERATIONS
 ...... END OF UHF CALCULATION ......
 CPU     0: STEP CPU TIME=     0.28 TOTAL CPU TIME=         23.9 (      0.4 MIN)
 TOTAL WALL CLOCK TIME=         24.3 SECONDS, CPU UTILIZATION IS    98.34%

 XEDA STEP ENERGY SUMMATION
 ETOT =       -155.29673278     ENUC =        103.34197553
 EEXCH=        -22.94367403

          --------------------------------------------------
          MONOMER EXCHANGE-REPULSION INTERACTION (OWN BASIS)
          --------------------------------------------------

          -------------
          GUESS OPTIONS
          -------------
          GUESS =MOSAVED           NORB  =       0          NORDER=       0
          MIX   =       F          PRTMO =       F          PUNMO =       F
          TOLZ  = 1.0E-08          TOLE  = 1.0E-05
          SYMDEN=       F          PURIFY=       F

 INITIAL GUESS ORBITALS GENERATED BY MOSAVED  ROUTINE.

 STATISTICS FOR GENERATION OF SYMMETRY ORBITAL -Q- MATRIX
 NUMBER OF CARTESIAN ATOMIC ORBITALS=        154
 NUMBER OF SPHERICAL CONTAMINANTS DROPPED=     8
 NUMBER OF LINEARLY DEPENDENT MOS DROPPED=     0
 TOTAL NUMBER OF MOS IN VARIATION SPACE=     146
 ...... END OF INITIAL ORBITAL SELECTION ......
 CPU     0: STEP CPU TIME=     0.01 TOTAL CPU TIME=         23.9 (      0.4 MIN)
 TOTAL WALL CLOCK TIME=         24.3 SECONDS, CPU UTILIZATION IS    98.34%

          ---------------------------
                  UHF SCF CALCULATION
          ---------------------------

 FINAL UHF ENERGY IS     -154.6234676964 AFTER   1 ITERATIONS
 ...... END OF UHF CALCULATION ......
 CPU     0: STEP CPU TIME=     0.07 TOTAL CPU TIME=         24.0 (      0.4 MIN)
 TOTAL WALL CLOCK TIME=         24.4 SECONDS, CPU UTILIZATION IS    98.32%

 XEDA STEP ENERGY SUMMATION
 ETOT =       -154.62346770     ENUC =        103.34197553

          ---------------------------------------------
          MONOMER ELECTROSTATIC INTERACTION (ALL BASIS)
          ---------------------------------------------

          -------------
          GUESS OPTIONS
          -------------
          GUESS =MOSAVED           NORB  =       0          NORDER=       0
          MIX   =       F          PRTMO =       F          PUNMO =       F
          TOLZ  = 1.0E-08          TOLE  = 1.0E-05
          SYMDEN=       F          PURIFY=       F

 INITIAL GUESS ORBITALS GENERATED BY MOSAVED  ROUTINE.

 STATISTICS FOR GENERATION OF SYMMETRY ORBITAL -Q- MATRIX
 NUMBER OF CARTESIAN ATOMIC ORBITALS=        154
 NUMBER OF SPHERICAL CONTAMINANTS DROPPED=     8
 NUMBER OF LINEARLY DEPENDENT MOS DROPPED=     0
 TOTAL NUMBER OF MOS IN VARIATION SPACE=     146
 ...... END OF INITIAL ORBITAL SELECTION ......
 CPU     0: STEP CPU TIME=     0.01 TOTAL CPU TIME=         24.0 (      0.4 MIN)
 TOTAL WALL CLOCK TIME=         24.4 SECONDS, CPU UTILIZATION IS    98.32%

          ---------------------------
                  UHF SCF CALCULATION
          ---------------------------

 FINAL UHF ENERGY IS     -155.3023844623 AFTER   1 ITERATIONS
 ...... END OF UHF CALCULATION ......
 CPU     0: STEP CPU TIME=     0.07 TOTAL CPU TIME=         24.1 (      0.4 MIN)
 TOTAL WALL CLOCK TIME=         24.5 SECONDS, CPU UTILIZATION IS    98.31%

          -------------
          GUESS OPTIONS
          -------------
          GUESS =MOSAVED           NORB  =       0          NORDER=       0
          MIX   =       F          PRTMO =       F          PUNMO =       F
          TOLZ  = 1.0E-08          TOLE  = 1.0E-05
          SYMDEN=       F          PURIFY=       F

 INITIAL GUESS ORBITALS GENERATED BY MOSAVED  ROUTINE.

 STATISTICS FOR GENERATION OF SYMMETRY ORBITAL -Q- MATRIX
 NUMBER OF CARTESIAN ATOMIC ORBITALS=        154
 NUMBER OF SPHERICAL CONTAMINANTS DROPPED=     8
 NUMBER OF LINEARLY DEPENDENT MOS DROPPED=     0
 TOTAL NUMBER OF MOS IN VARIATION SPACE=     146
 ...... END OF INITIAL ORBITAL SELECTION ......
 CPU     0: STEP CPU TIME=     0.01 TOTAL CPU TIME=         24.1 (      0.4 MIN)
 TOTAL WALL CLOCK TIME=         24.5 SECONDS, CPU UTILIZATION IS    98.31%

          ---------------------------
                  UHF SCF CALCULATION
          ---------------------------

 DIRECT SCF CALCULATION, SCHWRZ=T   FDIFF=T
 SCHWARZ INEQUALITY OVERHEAD:     11935 INTEGRALS, T=        0.00

 FINAL UHF ENERGY IS     -332.0608131966 AFTER   1 ITERATIONS
 ...... END OF UHF CALCULATION ......
 CPU     0: STEP CPU TIME=     0.28 TOTAL CPU TIME=         24.4 (      0.4 MIN)
 TOTAL WALL CLOCK TIME=         24.8 SECONDS, CPU UTILIZATION IS    98.30%

 XEDA STEP ENERGY SUMMATION
 ETOT =       -155.30238446     ENUC =        103.34197553
 EEXCH=        -22.94417859

          --------------------------------------------------
          MONOMER EXCHANGE-REPULSION INTERACTION (ALL BASIS)
          --------------------------------------------------

          -------------
          GUESS OPTIONS
          -------------
          GUESS =MOSAVED           NORB  =       0          NORDER=       0
          MIX   =       F          PRTMO =       F          PUNMO =       F
          TOLZ  = 1.0E-08          TOLE  = 1.0E-05
          SYMDEN=       F          PURIFY=       F

 INITIAL GUESS ORBITALS GENERATED BY MOSAVED  ROUTINE.

 STATISTICS FOR GENERATION OF SYMMETRY ORBITAL -Q- MATRIX
 NUMBER OF CARTESIAN ATOMIC ORBITALS=        154
 NUMBER OF SPHERICAL CONTAMINANTS DROPPED=     8
 NUMBER OF LINEARLY DEPENDENT MOS DROPPED=     0
 TOTAL NUMBER OF MOS IN VARIATION SPACE=     146
 ...... END OF INITIAL ORBITAL SELECTION ......
 CPU     0: STEP CPU TIME=     0.01 TOTAL CPU TIME=         24.4 (      0.4 MIN)
 TOTAL WALL CLOCK TIME=         24.8 SECONDS, CPU UTILIZATION IS    98.30%

          ---------------------------
                  UHF SCF CALCULATION
          ---------------------------

 FINAL UHF ENERGY IS     -154.6284426800 AFTER   1 ITERATIONS
 ...... END OF UHF CALCULATION ......
 CPU     0: STEP CPU TIME=     0.07 TOTAL CPU TIME=         24.4 (      0.4 MIN)
 TOTAL WALL CLOCK TIME=         24.9 SECONDS, CPU UTILIZATION IS    98.29%

 XEDA STEP ENERGY SUMMATION
 ETOT =       -154.62844268     ENUC =        103.34197553

          --------------------------------
          RESULTS OF INTERACTION ANALYSIS
          --------------------------------

     ENERGY TERMS
     T   ELECTRON KINETIC AND COULOMB POTENTIAL
     X   E-E EXCHANGE COMBINE WITH DIAGNANAL VALUE
     N   NUCLEUS-NUCLEUS REPULSION ENERGY

 --------------
 MONOMER ENERGY
 --------------

 MONOMER    1

                   OWN BASIS           ALL BASIS

 T              -93.92518907        -93.92521440
 X              -11.31228041        -11.31281185
 N               27.86080078         27.86080078
 EC              -0.47443854         -0.47507229
 E              -77.85110724        -77.85229776

 MONOMER    2

                   OWN BASIS           ALL BASIS

 T              -93.92522261        -93.92523588
 X              -11.31226372        -11.31280208
 N               27.86081794         27.86081794
 EC              -0.47445985         -0.47510123
 E              -77.85112824        -77.85232124

 ------------------------------------------------------------
 SUPER MOLECULE ENERGY  USING NON-ANTISYMMETRIC WAVEFUNCTION
 (ELECTROSTATIC ENERGY: T N CHANGE)
 ------------------------------------------------------------

              FROM OWN BASIS      FROM ALL BASIS
 T             -235.69503427       -235.70018140
 X              -22.62454413        -22.62561393
 N              103.34197553        103.34197553
 E             -154.97760287       -154.98381981

 ----------------------------------------------------------------------
 SUPER MOLECULE ENERGY  USING ANTISYMMETRIC NONORTHONORMAL WAVEFUNCTION
 (EXCHANGE ENERGY: ONLY X CHANGES)
 ----------------------------------------------------------------------

              FROM OWN BASIS      FROM ALL BASIS
 T             -235.69503427       -235.70018140
 X              -22.94367403        -22.94417859
 N              103.34197553        103.34197553
 E             -155.29673278       -155.30238446

 -----------------------------------------------------------------------
 SUPER MOLECULE ENERGY  USING ANTISYMMETRIC AND ORTHONORMAL WAVEFUNCTION
 (REPULSION ENERGY: T X CHANGE)
 -----------------------------------------------------------------------

              FROM OWN BASIS      FROM ALL BASIS
 T+X           -257.96544323       -257.97041821
 N              103.34197553        103.34197553
 E             -154.62346770       -154.62844268

 ---------------------------------------------
 SUPER MOLECULE ENERGY  USING SCF WAVEFUNCTION
 (POLARIZATION ENERGY: T X CHANGE)
 ---------------------------------------------
 T+X           -258.25005638
 N              103.34197553
 EC              -0.98729651
 E             -155.89537736


                   *******************************
                   SUMMARY OF INTERACTION ENERGIES
                     XEDA IN XIAMEN UNIVERSITY    
                    - ZHEN TANG AND PEIFENG SU -  
                   *******************************


 -------------
 OWN BASIS SET                                       HARTREE          KCAL/MOL
 -------------
 ELECTROSTATIC ENERGY                  ES=         -0.224266           -140.73
 EXCHANGE ENERGY                       EX=         -0.319130           -200.26
 REPULSION ENERGY                     REP=          0.673265            422.48
 POLARIZATION ENERGY                  POL=         -0.284613           -178.60
 ELECTRON CORRELATION                CORR=         -0.038398            -24.10
 TOTAL INTERACTION ENERGY               E=         -0.193142           -121.20
  

 -------------
 ALL BASIS SET                                       HARTREE          KCAL/MOL
 -------------
 ELECTROSTATIC ENERGY                  ES=         -0.229374           -143.93
 EXCHANGE ENERGY                       EX=         -0.318565           -199.90
 REPULSION ENERGY                     REP=          0.673942            422.91
 POLARIZATION ENERGY                  POL=         -0.279638           -175.48
 ELECTRON CORRELATION                CORR=         -0.037123            -23.30
 TOTAL INTERACTION ENERGY               E=         -0.190758           -119.70
  

                     ***************************
                     END OF INTERACTION ANALYSIS
                     ***************************

              1301896  WORDS OF DYNAMIC MEMORY USED
 EXECUTION OF GAMESS TERMINATED NORMALLY 14:31:50 25-DEC-2023    
 DDI: 263640 bytes (0.3 MB / 0 MWords) used by master data server.

 ----------------------------------------
 CPU timing information for all processes
 ========================================
 0: 23.816 + 0.633 = 24.450
 1: 23.632 + 0.544 = 24.176
 2: 23.645 + 0.525 = 24.170
 3: 23.625 + 0.516 = 24.142
 4: 23.617 + 0.589 = 24.207
 5: 23.624 + 0.532 = 24.156
 6: 23.618 + 0.546 = 24.164
 7: 23.640 + 0.476 = 24.117
 8: 23.624 + 0.590 = 24.215
 9: 23.568 + 0.510 = 24.79
 10: 23.550 + 0.541 = 24.92
 11: 23.604 + 0.500 = 24.105
 12: 23.624 + 0.527 = 24.152
 13: 23.579 + 0.509 = 24.89
 14: 23.583 + 0.568 = 24.151
 15: 23.600 + 0.460 = 24.60
 ----------------------------------------
 ddikick.x: exited gracefully.
----- accounting info -----
Files used on the master node w012 were:
-rw-r--r-- 1 xacs0647 10000  2703863 Dec 25 14:31 /job_dir/1_1685743/1.dat
-rw-r--r-- 1 xacs0647 10000      238 Dec 25 14:31 /job_dir/1_1685743/1.err
-rw-r--r-- 1 xacs0647 10000      837 Dec 25 14:31 /job_dir/1_1685743/1.F05
-rw-r--r-- 1 xacs0647 10000 45004000 Dec 25 14:31 /job_dir/1_1685743/1.F08
-rw-r--r-- 1 xacs0647 10000 44103920 Dec 25 14:31 /job_dir/1_1685743/1.F08.001
-rw-r--r-- 1 xacs0647 10000 41403680 Dec 25 14:31 /job_dir/1_1685743/1.F08.002
-rw-r--r-- 1 xacs0647 10000 40143568 Dec 25 14:31 /job_dir/1_1685743/1.F08.003
-rw-r--r-- 1 xacs0647 10000 39963552 Dec 25 14:31 /job_dir/1_1685743/1.F08.004
-rw-r--r-- 1 xacs0647 10000 45904080 Dec 25 14:31 /job_dir/1_1685743/1.F08.005
-rw-r--r-- 1 xacs0647 10000 38523424 Dec 25 14:31 /job_dir/1_1685743/1.F08.006
-rw-r--r-- 1 xacs0647 10000 43203840 Dec 25 14:31 /job_dir/1_1685743/1.F08.007
-rw-r--r-- 1 xacs0647 10000 44283936 Dec 25 14:31 /job_dir/1_1685743/1.F08.008
-rw-r--r-- 1 xacs0647 10000 41943728 Dec 25 14:31 /job_dir/1_1685743/1.F08.009
-rw-r--r-- 1 xacs0647 10000 41583696 Dec 25 14:31 /job_dir/1_1685743/1.F08.010
-rw-r--r-- 1 xacs0647 10000 47884256 Dec 25 14:31 /job_dir/1_1685743/1.F08.011
-rw-r--r-- 1 xacs0647 10000 44463952 Dec 25 14:31 /job_dir/1_1685743/1.F08.012
-rw-r--r-- 1 xacs0647 10000 42483776 Dec 25 14:31 /job_dir/1_1685743/1.F08.013
-rw-r--r-- 1 xacs0647 10000 46624144 Dec 25 14:31 /job_dir/1_1685743/1.F08.014
-rw-r--r-- 1 xacs0647 10000 37083296 Dec 25 14:31 /job_dir/1_1685743/1.F08.015
-rw-r--r-- 1 xacs0647 10000  5758720 Dec 25 14:31 /job_dir/1_1685743/1.F10
-rw-r--r-- 1 xacs0647 10000      837 Dec 25 14:31 /job_dir/1_1685743/1.inp
-rw-r--r-- 1 xacs0647 10000  2403536 Dec 25 14:31 /job_dir/1_1685743/1.out
Mon Dec 25 14:31:53 CST 2023
0.099u 0.080s 0:28.13 0.6%	0+0k 0+32io 0pf+0w
