----- GAMESS execution script 'rungms' -----
This job is running on host w012
under operating system Linux at Mon Dec 25 14:30:53 CST 2023
Available scratch disk space (Kbyte units) at beginning of the job is
Filesystem              1K-blocks    Used Available Use% Mounted on
/dev/mapper/system-root 932514944 2676280 929838664   1% /
GAMESS temporary binary files will be written to /job_dir/10_1685733
GAMESS supplementary output files will be written to /job_dir/10_1685733
Copying input file ./10.inp to your run's scratch directory...
 
Assuming a single but multicore node.
 

 Distributed Data Interface kickoff program.
 Initiating 16 compute processes on 1 nodes to run the following command:
 /share/apps/xeda-apps/xeda-td/gamess.00.x 10 

          *******************************************************
          *                                                     *
          *          GAMESS VERSION = 30 SEP 2020 (R2)          *
          *                                                     *
          *              doi.org/10.1063/5.0005188              *
          *                                                     *
          **************** 64 BIT LINUX VERSION *****************

  GAMESS HAS BEEN MADE POSSIBLE WITH IMPORTANT CONTRIBUTIONS FROM
  THE FOLLOWING INDIVIDUALS (IN ALPHABETICAL ORDER):

     IVANA ADAMOVIC, CHRISTINE AIKENS, TOMOKO AKAMA,
     YURI ALEXEEV, YURIKO AOKI, POOJA ARORA, TOSHIO ASADA,
     ANDREY ASADCHEV, KIM K. BALDRIDGE, PRADIPTA BANDYOPADHYAY,
     MARIA BARYSZ, ROB BELL, JONATHAN BENTZ, COLLEEN BERTONI,
     JERRY A. BOATZ, BRETT BODE, KURT BRORSEN, KURT R. BRORSEN,
     LAIMUTIS BYTAUTAS, CALEB CARLIN, LAURA CARRINGTON,
     GALINA CHABAN, BENOIT CHAMPAGNE, WEI CHEN, MAHITO CHIBA,
     DAN CHIPMAN, CHEOL HO CHOI, TANNER CULPITT,
     DIPAYAN DATTA, PAUL DAY, ALBERT DEFUSCO,
     NUWAN DESILVA, J. EMILIANO DEUSTUA,
     TIM DUDLEY, MICHEL DUPUIS, STEVEN T. ELBERT,
     DMITRI FEDOROV, ALEX FINDLATER, GRAHAM FLETCHER,
     MARK FREITAG, CHRISTIAN FRIEDL, DAVID GARMER,
     IGOR S. GERASIMOV, KURT GLAESEMANN, MARK S. GORDON,
     JEFFREY GOUR, FENG LONG GU, EMILIE B. GUIDEZ,
     ANASTASIA GUNINA, SHARON HAMMES-SCHIFFER, MASATAKE HARUTA,
     KIMIHIKO HIRAO, YASUHIRO IKABATA, TZVETELIN IORDANOV,
     STEPHAN IRLE, KAZUYA ISHIMURA, JOE IVANIC, FRANK JENSEN,
     JAN H. JENSEN, VISVALDAS KAIRYS, MUNEAKI KAMIYA,
     MICHIO KATOUDA, NAOAKI KAWAKAMI, DAN KEMP, BERNARD KIRTMAN,
     KAZUO KITAURA, MARIUSZ KLOBUKOWSKI, MASATO KOBAYASHI,
     PRAKASHAN KORAMBATH, JACEK KORCHOWIEC, SHIRO KOSEKI,
     KAROL KOWALSKI, JIMMY KROMANN, STANISLAW KUCHARSKI,
     HENRY KURTZ, SAROM SOK LEANG, HUI LI, SHUHUA LI, WEI LI,
     JESSE LUTZ, ALEKSANDR O. LYKHIN, MARCIN MAKOWSKI,
     JOANI MATO, NIKITA MATSUNAGA, BENEDETTA MENNUCCI,
     GRANT MERRILL, NORIYUKI MINEZAWA, VLADIMIR MIRONOV,
     EISAKU MIYOSHI, JOHN A. MONTGOMERY JR., HIROTOSHI MORI,
     JONATHAN MULLIN, MONIKA MUSIAL, SHIGERU NAGASE,
     TAKESHI NAGATA, HIROMI NAKAI, TAKAHITO NAKAJIMA,
     YUYA NAKAJIMA, HARUYUKI NAKANO, HIROYA NAKATA, SEAN NEDD,
     HEATHER NETZLOFF, KIET A. NGUYEN, YOSHIO NISHIMOTO,
     BOSILJKA NJEGIC, RYAN OLSON, MIKE PAK, ROBERTO PEVERATI,
     BUU PHAM, PIOTR PIECUCH, ANNA POMOGAEVA, DAVID POOLE,
     SPENCER PRUITT, OLIVIER QUINET, LUKE ROSKOP,
     KLAUS RUEDENBERG, ANDREW SAND, TOSAPORN SATTASATHUCHANA,
     NOZOMI SAWADA, MICHAEL W. SCHMIDT, PATRICK E. SCHNEIDER,
     JUNJI SEINO, PRACHI SHARMA, JUN SHEN, JIM SHOEMAKER,
     YINAN SHU, DEJUN SI, JONATHAN SKONE, LYUDMILA SLIPCHENKO,
     TONY SMITH, JIE SONG, MARK SPACKMAN, CASPER STEINMANN,
     WALT STEVENS, PEIFENG SU, SHUJUN SU, CHET SWALINA,
     TETSUYA TAKETSUGU, ZHEN TAO, NANDUN THELLAMUREGE
     SEIKEN TOKURA, JACOPO TOMASI, TSUGUKI TOUMA, TAKAO TSUNEDA,
     HIROAKI UMEDA, JORGE LUIS GALVEZ VALLEJO, YALI WANG,
     SIMON WEBB, AARON WEST, THERESA L. WINDUS, MARTA WLOCH,
     PENG XU, KIYOSHI YAGI, SUSUMU YANAGISAWA, YANG YANG,
     SOOHAENG YOO, TAKESHI YOSHIKAWA, FEDERICO ZAHARIEV,
     TOBY ZENG

  WHO ARE SUPPORTED BY THEIR INSTITUTION/UNIVERSITY/COMPANY/GROUP
  (IN ALPHABETICAL ORDER):

     EP ANALYTICS, FACULTES UNIVERSITAIRES NOTRE-DAME DE LA PAIX,
     INSTITUTE FOR MOLECULAR SCIENCE, IOWA STATE UNIVERSITY,
     JACKSON STATE UNIVERSITY, JOHANNES KEPLER UNIVERSITY LINZ,
     KYUSHU UNIVERSITY, MICHIGAN STATE UNIVERSITY,
     MIE UNIVERSITY, MOSCOW STATE UNIVERSITY,
     N. COPERNICUS UNIVERSITY, NAGOYA UNIVERSITY,
     NANJING UNIVERSITY, NAT. INST. OF ADVANCED INDUSTRIAL
     SCIENCE AND TECHNOLOGY, NATIONAL INST. OF STANDARDS AND
     TECHNOLOGY, NESMEYANOV INSTITUTE OF ORGANOELEMENT COMPOUNDS
     OF RUSSIAN ACADEMY OF SCIENCES, OSAKA PREFECTURE UNIVERSITY,
     PENNSYLVANIA STATE UNIVERSITY, TOKYO INSTITUTE OF TECHNOLOGY,
     UNIVERSITY OF AARHUS, UNIVERSITY OF ALBERTA,
     UNIVERSITY OF CALIFORNIA AT SANTA BARBARA,
     UNIVERSITY OF COPENHAGEN, UNIVERSITY OF IOWA,
     UNIVERSITY OF MEMPHIS, UNIVERSITY OF MINNESOTA,
     UNIVERSITY OF NEBRASKA, UNIVERSITY OF NEW ENGLAND,
     UNIVERSITY OF NOTRE DAME, UNIVERSITY OF PISA,
     UNIVERSITY OF SILESIA, UNIVERSITY OF TOKYO,
     UNIVERSITY OF ZURICH, WASEDA UNIVERSITY, YALE UNIVERSITY

  GAMESS SOFTWARE MANAGEMENT TEAM FOR THIS RELEASE:
     MARK S. GORDON (TEAM LEAD),
     BRETT BODE (SENIOR ADVISOR),
     GIUSEPPE BARCA,
     COLLEEN BERTONI,
     KRISTOPHER KEIPERT (ADVISOR),
     SAROM S. LEANG (DEVELOPMENT LEAD),
     BUU PHAM,
     JORGE LUIS GALVEZ VALLEJO (WEBSITE ADMINISTRATOR),
     PENG XU


 PARALLEL VERSION RUNNING ON       16 PROCESSORS IN        1 NODES.

 EXECUTION OF GAMESS BEGUN 14:30:53 25-DEC-2023    

            ECHO OF THE FIRST FEW INPUT CARDS -
 INPUT CARD> $CONTRL SCFTYP=UHF RUNTYP=EDA dfttyp=B3LYP ispher=1 icharg=0 mult=1 $END       
 INPUT CARD> $SYSTEM  mwords=150 memddi=150 $END                                            
 INPUT CARD> $BASIS gbasis=accd $END                                                        
 INPUT CARD> $LMOEDA MATOM(1)=5 5 MCHARG(1)=0 0 MMULT(1)=2 -2 edatyp=gks $end               
 INPUT CARD> $scf DIIS=.TRUE. ETHRSH=2.0 SWDIIS=0.005 $end                                  
 INPUT CARD> $data                                                                          
 INPUT CARD> EDA calculation with XEDA 1.0                                                  
 INPUT CARD> c1                                                                             
 INPUT CARD>C   6   -0.2043485821    0.8946438795   -1.3729278517                           
 INPUT CARD>C   6   -0.2043485821    0.8946438795   -0.0164856868                           
 INPUT CARD>H   1   -0.2256884526    1.8512538264    0.5202480986                           
 INPUT CARD>H   1   -0.2262571852   -0.0357828137   -1.9478199803                           
 INPUT CARD>H   1   -0.1912266330    1.8224525504   -1.9496464195                           
 INPUT CARD>C   6   -0.2043485821   -0.3356262092    0.8294924550                           
 INPUT CARD>C   6    0.5860060342   -1.4166946696    0.6136937945                           
 INPUT CARD>H   1    1.3092161318   -1.4455188246   -0.2065581015                           
 INPUT CARD>H   1    0.5411320444   -2.3009388441    1.2537724860                           
 INPUT CARD>H   1   -0.8852186866   -0.3316242035    1.6897414596                           
 INPUT CARD> $end                                                                           
  150000000 WORDS OF MEMORY AVAILABLE

     BASIS OPTIONS
     -------------
     GBASIS=ACCD         IGAUSS=       0      POLAR=NONE    
     NDFUNC=       0     NFFUNC=       0     DIFFSP=       F
     NPFUNC=       0      DIFFS=       F     BASNAM=        


     RUN TITLE
     ---------
  EDA calculation with XEDA 1.0                                                  

 THE POINT GROUP OF THE MOLECULE IS C1      
 THE ORDER OF THE PRINCIPAL AXIS IS     0

 ATOM      ATOMIC                      COORDINATES (BOHR)
           CHARGE         X                   Y                   Z
 C           6.0    -0.3861628261        1.6906317888       -2.5944574406
 C           6.0    -0.3861628261        1.6906317888       -0.0311534308
 H           1.0    -0.4264893340        3.4983624656        0.9831263520
 H           1.0    -0.4275640828       -0.0676197130       -3.6808460362
 H           1.0    -0.3613659379        3.4439359459       -3.6842975058
 C           6.0    -0.3861628261       -0.6342415697        1.5675134488
 C           6.0     1.1073908318       -2.6771647338        1.1597131120
 H           1.0     2.4740597478       -2.7316344886       -0.3903382124
 H           1.0     1.0225912871       -4.3481439299        2.3692864495
 H           1.0    -1.6728207569       -0.6266788755        3.1931483487

          INTERNUCLEAR DISTANCES (ANGS.)
          ------------------------------

                1 C          2 C          3 H          4 H          5 H     

   1 C       0.0000000    1.3564422 *  2.1212433 *  1.0939263 *  1.0925225 *
   2 C       1.3564422 *  0.0000000    1.0971058 *  2.1438811 *  2.1443208 *
   3 H       2.1212433 *  1.0971058 *  0.0000000    3.1068099    2.4703028 *
   4 H       1.0939263 *  2.1438811 *  3.1068099    0.0000000    1.8585664 *
   5 H       1.0925225 *  2.1443208 *  2.4703028 *  1.8585664 *  0.0000000  
   6 C       2.5227405 *  1.4930651 *  2.2087399 *  2.7935373 *  3.5186772  
   7 C       3.1485889    2.5227113 *  3.3685408    3.0212650    4.2031986  
   8 H       3.0212014    2.7934508 *  3.7084888    2.7160683 *  3.9961634  
   9 H       4.2032184    3.5186711    4.2856476    3.9962498    5.2726273  
  10 H       3.3685696    2.2087391 *  2.5627429 *  3.7085854    4.2856523  

                6 C          7 C          8 H          9 H         10 H     

   1 C       2.5227405 *  3.1485889    3.0212014    4.2032184    3.3685696  
   2 C       1.4930651 *  2.5227113 *  2.7934508 *  3.5186711    2.2087391 *
   3 H       2.2087399 *  3.3685408    3.7084888    4.2856476    2.5627429 *
   4 H       2.7935373 *  3.0212650    2.7160683 *  3.9962498    3.7085854  
   5 H       3.5186772    4.2031986    3.9961634    5.2726273    4.2856523  
   6 C       0.0000000    1.3564433 *  2.1438611 *  2.1443434 *  1.0971000 *
   7 C       1.3564433 *  0.0000000    1.0939273 *  1.0925210 *  2.1212635 *
   8 H       2.1438611 *  1.0939273 *  0.0000000    1.8585645 *  3.1068082  
   9 H       2.1443434 *  1.0925210 *  1.8585645 *  0.0000000    2.4703736 *
  10 H       1.0971000 *  2.1212635 *  3.1068082    2.4703736 *  0.0000000  

  * ... LESS THAN  3.000


     ATOMIC BASIS SET
     ----------------
 THE CONTRACTED PRIMITIVE FUNCTIONS HAVE BEEN UNNORMALIZED
 THE CONTRACTED BASIS FUNCTIONS ARE NOW NORMALIZED TO UNITY

  SHELL TYPE  PRIMITIVE        EXPONENT          CONTRACTION COEFFICIENT(S)

 C         

      1   S       1          6665.0000000    0.000691583963
      1   S       2          1000.0000000    0.005325796153
      1   S       3           228.0000000    0.027060721042
      1   S       4            64.7100000    0.101656846141
      1   S       5            21.0600000    0.274574823617
      1   S       6             7.4950000    0.448294318924
      1   S       7             2.7970000    0.284902610715
      1   S       8             0.5215000    0.015194859206

      2   S       9          6665.0000000   -0.000293269653
      2   S      10          1000.0000000   -0.002318035474
      2   S      11           228.0000000   -0.011499786039
      2   S      12            64.7100000   -0.046826727010
      2   S      13            21.0600000   -0.128466168750
      2   S      14             7.4950000   -0.301266272463
      2   S      15             2.7970000   -0.255630702330
      2   S      16             0.5215000    1.093793361012

      3   S      17             0.1596000    1.000000000000

      4   P      18             9.4390000    0.056979251590
      4   P      19             2.0020000    0.313207211501
      4   P      20             0.5456000    0.760376741738

      5   P      21             0.1517000    1.000000000000

      6   D      22             0.5500000    1.000000000000

      7   S      23             0.0469000    1.000000000000

      8   P      24             0.0404100    1.000000000000

      9   D      25             0.1510000    1.000000000000

 C         

     10   S      26          6665.0000000    0.000691583963
     10   S      27          1000.0000000    0.005325796153
     10   S      28           228.0000000    0.027060721042
     10   S      29            64.7100000    0.101656846141
     10   S      30            21.0600000    0.274574823617
     10   S      31             7.4950000    0.448294318924
     10   S      32             2.7970000    0.284902610715
     10   S      33             0.5215000    0.015194859206

     11   S      34          6665.0000000   -0.000293269653
     11   S      35          1000.0000000   -0.002318035474
     11   S      36           228.0000000   -0.011499786039
     11   S      37            64.7100000   -0.046826727010
     11   S      38            21.0600000   -0.128466168750
     11   S      39             7.4950000   -0.301266272463
     11   S      40             2.7970000   -0.255630702330
     11   S      41             0.5215000    1.093793361012

     12   S      42             0.1596000    1.000000000000

     13   P      43             9.4390000    0.056979251590
     13   P      44             2.0020000    0.313207211501
     13   P      45             0.5456000    0.760376741738

     14   P      46             0.1517000    1.000000000000

     15   D      47             0.5500000    1.000000000000

     16   S      48             0.0469000    1.000000000000

     17   P      49             0.0404100    1.000000000000

     18   D      50             0.1510000    1.000000000000

 H         

     19   S      51            13.0100000    0.033498726390
     19   S      52             1.9620000    0.234800801174
     19   S      53             0.4446000    0.813682957883

     20   S      54             0.1220000    1.000000000000

     21   P      55             0.7270000    1.000000000000

     22   S      56             0.0297400    1.000000000000

     23   P      57             0.1410000    1.000000000000

 H         

     24   S      58            13.0100000    0.033498726390
     24   S      59             1.9620000    0.234800801174
     24   S      60             0.4446000    0.813682957883

     25   S      61             0.1220000    1.000000000000

     26   P      62             0.7270000    1.000000000000

     27   S      63             0.0297400    1.000000000000

     28   P      64             0.1410000    1.000000000000

 H         

     29   S      65            13.0100000    0.033498726390
     29   S      66             1.9620000    0.234800801174
     29   S      67             0.4446000    0.813682957883

     30   S      68             0.1220000    1.000000000000

     31   P      69             0.7270000    1.000000000000

     32   S      70             0.0297400    1.000000000000

     33   P      71             0.1410000    1.000000000000

 C         

     34   S      72          6665.0000000    0.000691583963
     34   S      73          1000.0000000    0.005325796153
     34   S      74           228.0000000    0.027060721042
     34   S      75            64.7100000    0.101656846141
     34   S      76            21.0600000    0.274574823617
     34   S      77             7.4950000    0.448294318924
     34   S      78             2.7970000    0.284902610715
     34   S      79             0.5215000    0.015194859206

     35   S      80          6665.0000000   -0.000293269653
     35   S      81          1000.0000000   -0.002318035474
     35   S      82           228.0000000   -0.011499786039
     35   S      83            64.7100000   -0.046826727010
     35   S      84            21.0600000   -0.128466168750
     35   S      85             7.4950000   -0.301266272463
     35   S      86             2.7970000   -0.255630702330
     35   S      87             0.5215000    1.093793361012

     36   S      88             0.1596000    1.000000000000

     37   P      89             9.4390000    0.056979251590
     37   P      90             2.0020000    0.313207211501
     37   P      91             0.5456000    0.760376741738

     38   P      92             0.1517000    1.000000000000

     39   D      93             0.5500000    1.000000000000

     40   S      94             0.0469000    1.000000000000

     41   P      95             0.0404100    1.000000000000

     42   D      96             0.1510000    1.000000000000

 C         

     43   S      97          6665.0000000    0.000691583963
     43   S      98          1000.0000000    0.005325796153
     43   S      99           228.0000000    0.027060721042
     43   S     100            64.7100000    0.101656846141
     43   S     101            21.0600000    0.274574823617
     43   S     102             7.4950000    0.448294318924
     43   S     103             2.7970000    0.284902610715
     43   S     104             0.5215000    0.015194859206

     44   S     105          6665.0000000   -0.000293269653
     44   S     106          1000.0000000   -0.002318035474
     44   S     107           228.0000000   -0.011499786039
     44   S     108            64.7100000   -0.046826727010
     44   S     109            21.0600000   -0.128466168750
     44   S     110             7.4950000   -0.301266272463
     44   S     111             2.7970000   -0.255630702330
     44   S     112             0.5215000    1.093793361012

     45   S     113             0.1596000    1.000000000000

     46   P     114             9.4390000    0.056979251590
     46   P     115             2.0020000    0.313207211501
     46   P     116             0.5456000    0.760376741738

     47   P     117             0.1517000    1.000000000000

     48   D     118             0.5500000    1.000000000000

     49   S     119             0.0469000    1.000000000000

     50   P     120             0.0404100    1.000000000000

     51   D     121             0.1510000    1.000000000000

 H         

     52   S     122            13.0100000    0.033498726390
     52   S     123             1.9620000    0.234800801174
     52   S     124             0.4446000    0.813682957883

     53   S     125             0.1220000    1.000000000000

     54   P     126             0.7270000    1.000000000000

     55   S     127             0.0297400    1.000000000000

     56   P     128             0.1410000    1.000000000000

 H         

     57   S     129            13.0100000    0.033498726390
     57   S     130             1.9620000    0.234800801174
     57   S     131             0.4446000    0.813682957883

     58   S     132             0.1220000    1.000000000000

     59   P     133             0.7270000    1.000000000000

     60   S     134             0.0297400    1.000000000000

     61   P     135             0.1410000    1.000000000000

 H         

     62   S     136            13.0100000    0.033498726390
     62   S     137             1.9620000    0.234800801174
     62   S     138             0.4446000    0.813682957883

     63   S     139             0.1220000    1.000000000000

     64   P     140             0.7270000    1.000000000000

     65   S     141             0.0297400    1.000000000000

     66   P     142             0.1410000    1.000000000000

 TOTAL NUMBER OF BASIS SET SHELLS             =   66
 NUMBER OF CARTESIAN GAUSSIAN BASIS FUNCTIONS =  154
 NOTE: THIS RUN WILL RESTRICT THE MO VARIATION SPACE TO SPHERICAL HARMONICS.
 THE NUMBER OF ORBITALS KEPT IN THE VARIATIONAL SPACE WILL BE PRINTED LATER.
 NUMBER OF ELECTRONS                          =   30
 CHARGE OF MOLECULE                           =    0
 SPIN MULTIPLICITY                            =    1
 NUMBER OF OCCUPIED ORBITALS (ALPHA)          =   15
 NUMBER OF OCCUPIED ORBITALS (BETA )          =   15
 TOTAL NUMBER OF ATOMS                        =   10
 THE NUCLEAR REPULSION ENERGY IS      103.4116958182

 SELECTED MURRAY-HANDY-LAMING RADIAL GRID

 LEGACY BECKE'S FUZZY CELL METHOD

 SELECTED ORIGINAL BECKE'S PARTITION FUNCTION

     LEBEDEV GRID-BASED DFT OPTIONS
     ------------------------------
     DFTTYP=B3LYP   
     NRAD  =      96     NLEB  =     302
     NRAD0 =      24     NLEB0 =     110
     SWOFF =    5.00E-03 (PURE SCF -> DFT)
     SWITCH=    3.00E-04 (COARSE -> TIGHT GRID)
     THRESH=    0.00E+00 GTHRE=    1.00E+00

 GRIMME'S EMPIRICAL DISPERSION CORRECTION= F

     $CONTRL OPTIONS
     ---------------
 SCFTYP=UHF          RUNTYP=LMOEDA       EXETYP=RUN     
 MPLEVL=       0     CITYP =NONE         CCTYP =NONE         VBTYP =NONE    
 DFTTYP=B3LYP        TDDFT =NONE    
 MULT  =       1     ICHARG=       0     NZVAR =       0     COORD =UNIQUE  
 PP    =NONE         RELWFN=NONE         LOCAL =NONE         NUMGRD=       F
 ISPHER=       1     NOSYM =       0     MAXIT =      30     UNITS =ANGS    
 PLTORB=       F     MOLPLT=       F     AIMPAC=       F     FRIEND=        
 NPRINT=       7     IREST =       0     GEOM  =INPUT   
 NORMF =       0     NORMP =       0     ITOL  =      20     ICUT  =       9
 INTTYP=BEST         GRDTYP=BEST         QMTTOL= 1.0E-06

     $SYSTEM OPTIONS
     ---------------
  REPLICATED MEMORY=   150000000 WORDS (ON EVERY NODE).
 DISTRIBUTED MEMDDI=         150 MILLION WORDS IN AGGREGATE,
 MEMDDI DISTRIBUTED OVER  16 PROCESSORS IS     9375000 WORDS/PROCESSOR.
 TOTAL MEMORY REQUESTED ON EACH PROCESSOR=   159375000 WORDS.
 TIMLIM=      525600.00 MINUTES, OR     365.0 DAYS.
 PARALL= T  BALTYP=  DLB     KDIAG=    0  COREFL= F
 MXSEQ2=     300 MXSEQ3=     150  mem10=         0  mem22=         0

 Using Gaussians for PCM contribution to MEP, params: 0.10000E+01 0.10000E-07

          ----------------
          PROPERTIES INPUT
          ----------------

     MOMENTS            FIELD           POTENTIAL          DENSITY
 IEMOM =       1   IEFLD =       0   IEPOT =       0   IEDEN =       0
 WHERE =COMASS     WHERE =NUCLEI     WHERE =NUCLEI     WHERE =NUCLEI  
 OUTPUT=BOTH       OUTPUT=BOTH       OUTPUT=BOTH       OUTPUT=BOTH    
 IEMINT=       0   IEFINT=       0                     IEDINT=       0
                                                       MORB  =       0
          EXTRAPOLATION IN EFFECT
          DIIS IN EFFECT
          DIIS or SOSCF will be reset if energy rises
 ORBITAL PRINTING OPTION: NPREO=     1   154     2     1

     -------------------------------
     INTEGRAL TRANSFORMATION OPTIONS
     -------------------------------
     NWORD  =            0
     CUTOFF = 1.0E-09     MPTRAN =       0
     DIRTRF =       F     AOINTS =DUP     

          -----------------------------
          LOCALIZATION INPUT PARAMETERS
          -----------------------------
           LOCAL=RUEDNBRG      NOUTA=       0
          PRTLOC=       F      NOUTB=       0
          MAXLOC=     250     CVGLOC=1.00E-06
           FCORE=       F     SYMLOC=       F
          MOIDON=       F     EDCOMP=       F
          DIPDCM=       F      NPROT=       0
          QADDCM=       F     DEPRNT=       F
          POLNUM=       F     ORIENT=       F
          POLDYN=       F      VMTOL=1.50E-01
          NPRDTL=       2     IBOYAL=       1

          ----------------------
          INTEGRAL INPUT OPTIONS
          ----------------------
 NOPK  =       1 NORDER=       0 SCHWRZ=       T

     ------------------------------------------
     THE POINT GROUP IS C1 , NAXIS= 0, ORDER= 1
     ------------------------------------------

 -- VARIATIONAL SPACE WILL BE RESTRICTED TO PURE SPHERICAL HARMONICS ONLY --
 AFTER EXCLUDING CONTAMINANT COMBINATIONS FROM THE CARTESIAN GAUSSIAN BASIS
 SET, THE NUMBER OF SPHERICAL HARMONICS KEPT IN THE VARIATION SPACE IS  146

     DIMENSIONS OF THE SYMMETRY SUBSPACES ARE
 A   =  146

 ..... DONE SETTING UP THE RUN .....
 CPU     0: STEP CPU TIME=     0.02 TOTAL CPU TIME=          0.0 (      0.0 MIN)
 TOTAL WALL CLOCK TIME=          0.0 SECONDS, CPU UTILIZATION IS    70.21%

          --------------
          GKSEDA OPTIONS
          --------------
          NMOL  =       2          EDATYP=GKS     
          SUPBAS=       T          RDVECM=       F          ITRTN =       T

 *******************
 GKSEDA IS BEGINNING
 *******************

 NMOL =  2

 MONOMER     ATOM   CHARGE ELECTRON MULTIPLE
 -------------------------------------------
       1        5        0       15        2
       2        5        0       15       -2
 -------------------------------------------

 SAVING MOL INFO REQUIRES    598670 WORDS OF MEMORY.

          ********************
          1 ELECTRON INTEGRALS
          ********************
 ...... END OF ONE-ELECTRON INTEGRALS ......
 CPU     0: STEP CPU TIME=     0.01 TOTAL CPU TIME=          0.0 (      0.0 MIN)
 TOTAL WALL CLOCK TIME=          0.0 SECONDS, CPU UTILIZATION IS    73.87%

          -------------
          GUESS OPTIONS
          -------------
          GUESS =HUCKEL            NORB  =       0          NORDER=       0
          MIX   =       F          PRTMO =       F          PUNMO =       F
          TOLZ  = 1.0E-08          TOLE  = 1.0E-05
          SYMDEN=       F          PURIFY=       F

 INITIAL GUESS ORBITALS GENERATED BY HUCKEL   ROUTINE.
 HUCKEL GUESS REQUIRES    180842 WORDS.

 STATISTICS FOR GENERATION OF SYMMETRY ORBITAL -Q- MATRIX
 NUMBER OF CARTESIAN ATOMIC ORBITALS=        154
 NUMBER OF SPHERICAL CONTAMINANTS DROPPED=     8
 NUMBER OF LINEARLY DEPENDENT MOS DROPPED=     0
 TOTAL NUMBER OF MOS IN VARIATION SPACE=     146

 SYMMETRIES FOR INITIAL GUESS ORBITALS FOLLOW.  ALPHA SET(S).
    15 ORBITALS ARE OCCUPIED (    4 CORE ORBITALS).
     5=A        6=A        7=A        8=A        9=A       10=A       11=A   
    12=A       13=A       14=A       15=A       16=A       17=A       18=A   
    19=A       20=A       21=A       22=A       23=A       24=A       25=A   

 SYMMETRIES FOR INITIAL GUESS ORBITALS FOLLOW.   BETA SET(S).
    15 ORBITALS ARE OCCUPIED (    4 CORE ORBITALS).
     5=A        6=A        7=A        8=A        9=A       10=A       11=A   
    12=A       13=A       14=A       15=A       16=A       17=A       18=A   
    19=A       20=A       21=A       22=A       23=A       24=A       25=A   
 ...... END OF INITIAL ORBITAL SELECTION ......
 CPU     0: STEP CPU TIME=     0.01 TOTAL CPU TIME=          0.0 (      0.0 MIN)
 TOTAL WALL CLOCK TIME=          0.1 SECONDS, CPU UTILIZATION IS    80.12%

          -------------------------
          MONOMER  1 WITH OWN BASIS
          -------------------------

     ------------------------------------------
     THE POINT GROUP IS C1 , NAXIS= 0, ORDER= 1
     ------------------------------------------

 -- VARIATIONAL SPACE WILL BE RESTRICTED TO PURE SPHERICAL HARMONICS ONLY --
 AFTER EXCLUDING CONTAMINANT COMBINATIONS FROM THE CARTESIAN GAUSSIAN BASIS
 SET, THE NUMBER OF SPHERICAL HARMONICS KEPT IN THE VARIATION SPACE IS   73

     DIMENSIONS OF THE SYMMETRY SUBSPACES ARE
 A   =   73

          ********************
          1 ELECTRON INTEGRALS
          ********************
 ...... END OF ONE-ELECTRON INTEGRALS ......
 CPU     0: STEP CPU TIME=     0.01 TOTAL CPU TIME=          0.1 (      0.0 MIN)
 TOTAL WALL CLOCK TIME=          0.1 SECONDS, CPU UTILIZATION IS    78.01%

          -------------
          GUESS OPTIONS
          -------------
          GUESS =HUCKEL            NORB  =       0          NORDER=       0
          MIX   =       F          PRTMO =       F          PUNMO =       F
          TOLZ  = 1.0E-08          TOLE  = 1.0E-05
          SYMDEN=       F          PURIFY=       F

 INITIAL GUESS ORBITALS GENERATED BY HUCKEL   ROUTINE.
 HUCKEL GUESS REQUIRES     47410 WORDS.

 STATISTICS FOR GENERATION OF SYMMETRY ORBITAL -Q- MATRIX
 NUMBER OF CARTESIAN ATOMIC ORBITALS=         77
 NUMBER OF SPHERICAL CONTAMINANTS DROPPED=     4
 NUMBER OF LINEARLY DEPENDENT MOS DROPPED=     0
 TOTAL NUMBER OF MOS IN VARIATION SPACE=      73

 SYMMETRIES FOR INITIAL GUESS ORBITALS FOLLOW.  ALPHA SET(S).
     8 ORBITALS ARE OCCUPIED (    2 CORE ORBITALS).
     3=A        4=A        5=A        6=A        7=A        8=A        9=A   
    10=A       11=A       12=A       13=A       14=A       15=A       16=A   
    17=A       18=A   

 SYMMETRIES FOR INITIAL GUESS ORBITALS FOLLOW.   BETA SET(S).
     7 ORBITALS ARE OCCUPIED (    2 CORE ORBITALS).
     3=A        4=A        5=A        6=A        7=A        8=A        9=A   
    10=A       11=A       12=A       13=A       14=A       15=A       16=A   
    17=A   
 ...... END OF INITIAL ORBITAL SELECTION ......
 CPU     0: STEP CPU TIME=     0.00 TOTAL CPU TIME=          0.1 (      0.0 MIN)
 TOTAL WALL CLOCK TIME=          0.1 SECONDS, CPU UTILIZATION IS    79.02%

                    ----------------------
                    AO INTEGRAL TECHNOLOGY
                    ----------------------
     S,P,L SHELL ROTATED AXIS INTEGRALS, REPROGRAMMED BY
        KAZUYA ISHIMURA (IMS) AND JOSE SIERRA (SYNSTAR).
     S,P,D,L SHELL ROTATED AXIS INTEGRALS PROGRAMMED BY
        KAZUYA ISHIMURA (INSTITUTE FOR MOLECULAR SCIENCE).
     S,P,D,F,G SHELL TO TOTAL QUARTET ANGULAR MOMENTUM SUM 5,
        ERIC PROGRAM BY GRAHAM FLETCHER (ELORET AND NASA ADVANCED
        SUPERCOMPUTING DIVISION, AMES RESEARCH CENTER).
     S,P,D,F,G,L SHELL GENERAL RYS QUADRATURE PROGRAMMED BY
        MICHEL DUPUIS (PACIFIC NORTHWEST NATIONAL LABORATORY).

          --------------------
          2 ELECTRON INTEGRALS
          --------------------

 THE -PK- OPTION IS OFF, THE INTEGRALS ARE NOT IN SUPERMATRIX FORM.
 STORING   15000 INTEGRALS/RECORD ON DISK, USING 12 BYTES/INTEGRAL.
 TWO ELECTRON INTEGRAL EVALUATION REQUIRES   90957 WORDS OF MEMORY.
 SCHWARZ INEQUALITY OVERHEAD:      3003 INTEGRALS, T=        0.00
 II,JST,KST,LST =  1  1  1  1 NREC =         1 INTLOC =    1
 II,JST,KST,LST =  2  1  1  1 NREC =         1 INTLOC =    1
 II,JST,KST,LST =  3  1  1  1 NREC =         1 INTLOC =    1
 II,JST,KST,LST =  4  1  1  1 NREC =         1 INTLOC =    1
 II,JST,KST,LST =  5  1  1  1 NREC =         1 INTLOC =    1
 II,JST,KST,LST =  6  1  1  1 NREC =         1 INTLOC =    1
 II,JST,KST,LST =  7  1  1  1 NREC =         1 INTLOC =    4
 II,JST,KST,LST =  8  1  1  1 NREC =         1 INTLOC =  250
 II,JST,KST,LST =  9  1  1  1 NREC =         1 INTLOC =  250
 II,JST,KST,LST = 10  1  1  1 NREC =         1 INTLOC =  250
 II,JST,KST,LST = 11  1  1  1 NREC =         1 INTLOC =  288
 II,JST,KST,LST = 12  1  1  1 NREC =         1 INTLOC = 1614
 II,JST,KST,LST = 13  1  1  1 NREC =         1 INTLOC = 1614
 II,JST,KST,LST = 14  1  1  1 NREC =         1 INTLOC = 1614
 II,JST,KST,LST = 15  1  1  1 NREC =         1 INTLOC = 5387
 II,JST,KST,LST = 16  1  1  1 NREC =         1 INTLOC =11604
 II,JST,KST,LST = 17  1  1  1 NREC =         1 INTLOC =11604
 II,JST,KST,LST = 18  1  1  1 NREC =         1 INTLOC =11604
 II,JST,KST,LST = 19  1  1  1 NREC =         1 INTLOC =11604
 II,JST,KST,LST = 20  1  1  1 NREC =         2 INTLOC = 1886
 II,JST,KST,LST = 21  1  1  1 NREC =         2 INTLOC = 4387
 II,JST,KST,LST = 22  1  1  1 NREC =         6 INTLOC = 9426
 II,JST,KST,LST = 23  1  1  1 NREC =         6 INTLOC = 9426
 II,JST,KST,LST = 24  1  1  1 NREC =         6 INTLOC = 9426
 II,JST,KST,LST = 25  1  1  1 NREC =         8 INTLOC =  617
 II,JST,KST,LST = 26  1  1  1 NREC =         8 INTLOC =13661
 II,JST,KST,LST = 27  1  1  1 NREC =         9 INTLOC =10685
 II,JST,KST,LST = 28  1  1  1 NREC =        10 INTLOC =14964
 II,JST,KST,LST = 29  1  1  1 NREC =        12 INTLOC = 4284
 II,JST,KST,LST = 30  1  1  1 NREC =        13 INTLOC = 2328
 II,JST,KST,LST = 31  1  1  1 NREC =        14 INTLOC = 2694
 II,JST,KST,LST = 32  1  1  1 NREC =        15 INTLOC = 9010
 II,JST,KST,LST = 33  1  1  1 NREC =        16 INTLOC =14099
 SCHWARZ INEQUALITY TEST SKIPPED           0 INTEGRAL BLOCKS.
 TOTAL NUMBER OF NONZERO TWO-ELECTRON INTEGRALS =             3897715
        269 INTEGRAL RECORDS WERE STORED ON DISK FILE  8.
  ...... END OF TWO-ELECTRON INTEGRALS .....
 CPU     0: STEP CPU TIME=     0.03 TOTAL CPU TIME=          0.1 (      0.0 MIN)
 TOTAL WALL CLOCK TIME=          0.1 SECONDS, CPU UTILIZATION IS    81.54%

          ---------------------------
              U-B3LYP SCF CALCULATION
          ---------------------------

     NUCLEAR ENERGY =        27.8747681227
     MAXIT = 30     NPUNCH=  2     MULT=  2
     EXTRAP=T  DAMP=F  SHIFT=F  RSTRCT=F  DIIS=T  SOSCF=T
         DENSITY MATRIX CONVERGENCE THRESHOLD=  1.00E-05
     COARSE -> FINE DFT GRID SWITCH THRESHOLD=  3.00E-04 (SWITCH IN $DFT)
                   HF -> DFT SWITCH THRESHOLD=  5.00E-03 (SWOFF IN $DFT)
     SOSCF WILL OPTIMIZE     520 ALPHA AND     462 BETA ROTATION ANGLES.
     SOGTOL= 2.500E-01
     MEMORY REQUIRED FOR UHF/ROHF ITERS=    298732 WORDS.

     EXCHANGE FUNCTIONAL   =B88&HFX   
     CORRELATION FUNCTIONAL=LYP88&VWN5
     DFT THRESHOLD         =.690E-08
     GRID CHANGE THRESHOLD =.300E-03
 FOR AN EULER-MACLAURIN QUADRATURE USING  96 RADIAL POINTS:
 SMALLEST GAUSSIAN PRIMITIVE EXPONENT=        0.0297400000 OF TYPE -S-
 ON ATOM NUMBER   3 HAS RADIAL NORMALIZATION=  1.000000
  LARGEST GAUSSIAN PRIMITIVE EXPONENT=     6665.0000000000 OF TYPE -S-
 ON ATOM NUMBER   1 HAS RADIAL NORMALIZATION=  1.000000
 DFT IS SWITCHED OFF, PERFORMING PURE SCF UNTIL SWOFF THRESHOLD IS REACHED.

 ITER EX      TOTAL ENERGY        E CHANGE  DENSITY CHANGE    DIIS ERROR
          * * *   INITIATING DIIS PROCEDURE   * * *
   1  0      -77.1745601472   -77.1745601472   0.500491983   0.357042339
   2  1      -77.3686205780    -0.1940604308   0.154391503   0.054082873
   3  2      -77.3846599026    -0.0160393246   0.031190320   0.025965123
   4  3      -77.3890671539    -0.0044072513   0.022132764   0.011222267
   5  4      -77.3904560741    -0.0013889202   0.012912829   0.008554712
   6  5      -77.3911048661    -0.0006487920   0.024427222   0.008551199
   7  6      -77.3921723072    -0.0010674410   0.064180764   0.008302237
   8  7      -77.3945452456    -0.0023729384   0.111944362   0.006449343
   9  8      -77.3960962951    -0.0015510495   0.067896038   0.002049514
  10  9      -77.3956700239     0.0004262712   0.042536830   0.004102520
  11 10      -77.3961690508    -0.0004990269   0.006907426   0.000717300
  12 11      -77.3961832568    -0.0000142060   0.000810297   0.000104859
 CONVERGED TO SWOFF, SO DFT CALCULATION IS NOW SWITCHED ON.
          * * *   INITIATING DIIS PROCEDURE   * * *
  13 12      -77.8300141914    -0.4338309346   0.393867842   0.062322965
  14 13      -77.8466080276    -0.0165938362   0.062669587   0.016719256
  15 14      -77.8492877067    -0.0026796791   0.024661682   0.011958440
  16 15      -77.8507440435    -0.0014563368   0.050540542   0.007369972
  17 16      -77.8517233134    -0.0009792699   0.009193947   0.003430086
  18 17      -77.8518064761    -0.0000831628   0.006005794   0.001410348
  19 18      -77.8518263015    -0.0000198254   0.002025651   0.000278901
         SWDIIS THRESHOLD HAS BEEN REACHED: SWITCHING DIIS OFF.
          ---------------START SECOND ORDER SCF---------------
  20 19      -77.8518274620    -0.0000011605   0.000136333   0.000021811
  21 20      -77.8518274749    -0.0000000129   0.000156108   0.000022959
  22 21      -77.8518274755    -0.0000000006   0.000065831   0.000022179
  23 22      -77.8518274799    -0.0000000045   0.000008567   0.000002396
  24 23      -77.8518274801    -0.0000000001   0.000011808   0.000001896

          ----------------
          ENERGY CONVERGED
          ----------------
     TIME TO FORM FOCK OPERATORS=       1.2 SECONDS (       0.1 SEC/ITER)
     TIME TO SOLVE SCF EQUATIONS=       0.1 SECONDS (       0.0 SEC/ITER)

 FINAL U-B3LYP ENERGY IS      -77.8518274801 AFTER  24 ITERATIONS
 DFT EXCHANGE + CORRELATION ENERGY =        -9.5248545008
 TOTAL ELECTRON NUMBER             =        14.9999921035

          --------------------
          SPIN SZ   =    0.500
          S-SQUARED =    0.764
          --------------------

  ----- ALPHA SET ----- 

          ------------
          EIGENVECTORS
          ------------

                      1          2          3          4          5
                  -10.2291   -10.2019    -0.7670    -0.5780    -0.4645
                     A          A          A          A          A   
    1  C  1  S    0.012130   1.009649  -0.019663   0.011334  -0.002212
    2  C  1  S   -0.001519   0.022156   0.316291  -0.227187   0.000893
    3  C  1  S    0.040184  -0.073339   0.096067  -0.324150  -0.033346
    4  C  1  X   -0.000015   0.000001  -0.000062   0.000279   0.004109
    5  C  1  Y   -0.000025  -0.000007   0.007813   0.031472   0.341371
    6  C  1  Z   -0.001004  -0.000349   0.110692   0.207021  -0.209341
    7  C  1  X    0.000128   0.000055   0.000048  -0.000539  -0.000909
    8  C  1  Y   -0.001331  -0.000258   0.024149   0.027341  -0.016482
    9  C  1  Z    0.038659  -0.008936  -0.029356  -0.242024   0.039991
   10  C  1 XX    0.000215  -0.001627  -0.006302   0.001492  -0.001721
   11  C  1 YY    0.000860   0.000839  -0.007574  -0.011312   0.008491
   12  C  1 ZZ   -0.001075   0.000787   0.013875   0.009820  -0.006770
   13  C  1 XY    0.000020   0.000052  -0.000057  -0.000258   0.000131
   14  C  1 XZ    0.000002   0.000012   0.000018  -0.000202  -0.000307
   15  C  1 YZ    0.000472   0.000048   0.000212   0.002358  -0.006057
   16  C  1  S    0.015243  -0.033937   0.016490   0.138142  -0.060294
   17  C  1  X    0.000031   0.000020  -0.000222  -0.000169  -0.001100
   18  C  1  Y    0.000763   0.000816  -0.003684   0.009017  -0.058766
   19  C  1  Z    0.006204  -0.003695  -0.001953   0.011762  -0.008793
   20  C  1 XX   -0.002134   0.004867   0.006339  -0.007190  -0.006327
   21  C  1 YY   -0.004484   0.001488  -0.008191   0.105850  -0.044507
   22  C  1 ZZ    0.006618  -0.006356   0.001852  -0.098661   0.050834
   23  C  1 XY   -0.000031  -0.000054  -0.000899   0.001432  -0.001366
   24  C  1 XZ   -0.000032  -0.000038   0.000423   0.000195   0.002079
   25  C  1 YZ   -0.003122  -0.001069   0.024836   0.019464   0.104896
   26  C  2  S    1.009987  -0.013708  -0.017129  -0.006440  -0.000329
   27  C  2  S    0.022729  -0.001368   0.307124   0.268935  -0.070467
   28  C  2  S   -0.089917   0.024477   0.252939   0.492797  -0.241109
   29  C  2  X   -0.000043  -0.000006  -0.001057  -0.002752  -0.000380
   30  C  2  Y    0.000902   0.000106   0.024475   0.097798   0.255392
   31  C  2  Z   -0.000219   0.000911  -0.128242   0.119114   0.162976
   32  C  2  X    0.000150   0.000068   0.000308   0.000773  -0.000216
   33  C  2  Y   -0.003238  -0.001151  -0.057819  -0.093163   0.008727
   34  C  2  Z    0.030743  -0.016855  -0.091230  -0.220318   0.063355
   35  C  2 XX   -0.000853   0.000672  -0.011434  -0.001419  -0.000472
   36  C  2 YY    0.000522   0.000641  -0.003921   0.009841   0.005728
   37  C  2 ZZ    0.000332  -0.001313   0.015355  -0.008422  -0.005256
   38  C  2 XY   -0.000018  -0.000007   0.000250  -0.000025  -0.000350
   39  C  2 XZ   -0.000025   0.000003  -0.000042  -0.000259  -0.000312
   40  C  2 YZ    0.000886   0.000041  -0.006136  -0.001645  -0.009706
   41  C  2  S   -0.029010   0.019788  -0.018924  -0.118276   0.022118
   42  C  2  X    0.000011   0.000021   0.000242   0.000410   0.000421
   43  C  2  Y   -0.001409  -0.001329  -0.000322  -0.026884   0.018155
   44  C  2  Z    0.004239  -0.005758   0.006613   0.004861  -0.013270
   45  C  2 XX    0.005990  -0.001053  -0.006808   0.006285   0.001255
   46  C  2 YY    0.004289  -0.001758  -0.017825  -0.059830  -0.008201
   47  C  2 ZZ   -0.010279   0.002811   0.024633   0.053545   0.006945
   48  C  2 XY    0.000006  -0.000007   0.000988   0.000628   0.000749
   49  C  2 XZ    0.000054  -0.000004   0.000350   0.000210   0.000722
   50  C  2 YZ   -0.004250  -0.001156   0.008742  -0.022033   0.013244
   51  H  3  S   -0.000659  -0.000103   0.124302   0.258833   0.194042
   52  H  3  S    0.021387   0.007210   0.065113   0.272409   0.107863
   53  H  3  X   -0.000035   0.000006   0.000246   0.000503   0.000380
   54  H  3  Y    0.001718  -0.000006  -0.012768  -0.016846  -0.005900
   55  H  3  Z    0.000733   0.000182  -0.011275  -0.009952  -0.005249
   56  H  3  S    0.001298   0.001927   0.003564   0.025938   0.010354
   57  H  3  X    0.000186   0.000060  -0.000139   0.001964  -0.000105
   58  H  3  Y   -0.007711  -0.002227  -0.007752  -0.042411  -0.011763
   59  H  3  Z   -0.002019  -0.000914  -0.017529  -0.029467  -0.010553
   60  H  4  S   -0.000346  -0.000854   0.116735  -0.229108  -0.141529
   61  H  4  S    0.017768   0.021917  -0.010691  -0.217965  -0.198876
   62  H  4  X   -0.000004  -0.000037   0.000322  -0.000492  -0.000147
   63  H  4  Y   -0.000211  -0.001549   0.014372  -0.016891   0.000596
   64  H  4  Z   -0.000613  -0.001017   0.012533  -0.005373  -0.009987
   65  H  4  S    0.001767   0.002003   0.000036  -0.012819  -0.041608
   66  H  4  X    0.000114   0.000170  -0.000364  -0.001192  -0.001522
   67  H  4  Y    0.004841   0.006792  -0.009308  -0.020682  -0.049627
   68  H  4  Z    0.002446   0.003032   0.008864  -0.034024   0.011201
   69  H  5  S   -0.000192  -0.000915   0.126526  -0.203039   0.341132
   70  H  5  S    0.009348   0.019027   0.015027  -0.225296   0.435341
   71  H  5  X   -0.000007   0.000017  -0.000203   0.000278  -0.000187
   72  H  5  Y   -0.000077   0.001520  -0.014509   0.016638  -0.010229
   73  H  5  Z   -0.000421  -0.000946   0.011296  -0.004932   0.005104
   74  H  5  S    0.001702   0.001137   0.002191  -0.013810   0.045558
   75  H  5  X   -0.000055  -0.000092   0.000468   0.000794  -0.000445
   76  H  5  Y   -0.002369  -0.006014   0.000584   0.020098  -0.072631
   77  H  5  Z    0.001983   0.002961  -0.001975  -0.053682   0.040793

                      6          7          8          9         10
                   -0.4137    -0.2852    -0.2733    -0.0197    -0.0019
                     A          A          A          A          A   
    1  C  1  S    0.000010  -0.000090   0.000583   0.000092  -0.002985
    2  C  1  S   -0.036452  -0.006454   0.050108   0.002552   0.084562
    3  C  1  S   -0.169857  -0.003298   0.023029   0.005522   0.345734
    4  C  1  X   -0.008930   0.389645   0.043234   0.403719  -0.000608
    5  C  1  Y   -0.254735   0.006816  -0.134932  -0.008414   0.029480
    6  C  1  Z   -0.320120  -0.018392   0.112062  -0.000040  -0.096115
    7  C  1  X   -0.000899   0.214445   0.026110   0.338820  -0.001301
    8  C  1  Y    0.060618  -0.008425   0.032057  -0.005360   0.042086
    9  C  1  Z   -0.092196   0.001074  -0.021542   0.000208  -0.283530
   10  C  1 XX   -0.001153  -0.000005   0.000520   0.000066   0.000938
   11  C  1 YY    0.010625   0.000139  -0.000666  -0.000005  -0.002784
   12  C  1 ZZ   -0.009472  -0.000134   0.000146  -0.000062   0.001847
   13  C  1 XY    0.000237   0.000620   0.000093   0.000048  -0.000004
   14  C  1 XZ   -0.000280   0.021497   0.002960  -0.030077  -0.000017
   15  C  1 YZ    0.013719  -0.004147   0.040257  -0.000521   0.001421
   16  C  1  S   -0.038726  -0.019968   0.156570  -0.001271   1.297788
   17  C  1  X    0.000431   0.028508   0.004130   0.563078   0.001762
   18  C  1  Y    0.051324  -0.002418   0.019995  -0.011094   0.037454
   19  C  1  Z   -0.014908  -0.005378   0.039766  -0.003423  -0.297924
   20  C  1 XX    0.000054   0.000696  -0.005638  -0.000343  -0.039353
   21  C  1 YY   -0.044037  -0.004150   0.028932   0.000123   0.024837
   22  C  1 ZZ    0.043983   0.003453  -0.023295   0.000220   0.014516
   23  C  1 XY   -0.002285   0.004475   0.000659  -0.003288   0.001141
   24  C  1 XZ   -0.000725   0.003808  -0.000421  -0.041837   0.000609
   25  C  1 YZ   -0.051791   0.003113  -0.034869   0.002731   0.026957
   26  C  2  S   -0.000878  -0.000046  -0.000776   0.000056  -0.002526
   27  C  2  S    0.030866   0.020066  -0.150403  -0.003824   0.056081
   28  C  2  S   -0.055329   0.039617  -0.310690  -0.009077   0.366579
   29  C  2  X   -0.008355   0.439473   0.053709  -0.411864  -0.000586
   30  C  2  Y    0.035924  -0.052436   0.471197  -0.003350   0.043814
   31  C  2  Z    0.374594   0.037601  -0.254086  -0.003818   0.082536
   32  C  2  X   -0.001267   0.254167   0.033909  -0.348831  -0.002766
   33  C  2  Y   -0.066219  -0.024691   0.240425  -0.005733   0.099014
   34  C  2  Z    0.045298   0.028894  -0.221013  -0.002120  -0.007322
   35  C  2 XX   -0.001600   0.000177  -0.004815   0.000163  -0.001697
   36  C  2 YY    0.011061   0.000352   0.000087  -0.000022  -0.004881
   37  C  2 ZZ   -0.009461  -0.000529   0.004728  -0.000141   0.006578
   38  C  2 XY   -0.000203  -0.000466  -0.000692  -0.000086  -0.000006
   39  C  2 XZ    0.000102  -0.020308  -0.002176  -0.032120  -0.000013
   40  C  2 YZ    0.017736  -0.001771   0.020319   0.001027  -0.003610
   41  C  2  S   -0.014478   0.032355  -0.259668  -0.002212   0.871523
   42  C  2  X    0.000477   0.031155   0.004407  -0.515057  -0.004121
   43  C  2  Y   -0.035894  -0.002222   0.023599   0.001197   0.190675
   44  C  2  Z   -0.015225  -0.001395   0.007126  -0.005032   0.147181
   45  C  2 XX   -0.003976  -0.001216   0.006905   0.000339  -0.039503
   46  C  2 YY   -0.036937   0.002904  -0.022953  -0.000536  -0.012558
   47  C  2 ZZ    0.040913  -0.001687   0.016048   0.000196   0.052061
   48  C  2 XY    0.001697  -0.001317  -0.000165   0.008349  -0.000907
   49  C  2 XZ    0.000247  -0.007161  -0.000812  -0.037636  -0.000213
   50  C  2 YZ   -0.017112   0.000849  -0.011904   0.002367   0.033143
   51  H  3  S    0.233096  -0.020925   0.195016   0.007948   0.005222
   52  H  3  S    0.278081  -0.026915   0.248825   0.007835  -0.358285
   53  H  3  X    0.000024   0.015552   0.002186  -0.020927   0.000237
   54  H  3  Y   -0.009277  -0.000546   0.006757  -0.000099  -0.010692
   55  H  3  Z    0.001065   0.002191  -0.015812  -0.000153  -0.001539
   56  H  3  S    0.036883  -0.002268   0.027605   0.009669  -0.898279
   57  H  3  X    0.000557   0.015185   0.003163  -0.053489  -0.000911
   58  H  3  Y   -0.038787   0.002095  -0.017906   0.001896   0.031729
   59  H  3  Z   -0.036266   0.004053  -0.028966   0.000512   0.032987
   60  H  4  S    0.324745  -0.012858   0.145206  -0.004858   0.006878
   61  H  4  S    0.390901  -0.016719   0.193110  -0.007939  -0.404549
   62  H  4  X    0.000107   0.014323   0.001693   0.021807   0.000199
   63  H  4  Y    0.009641  -0.000197  -0.000889  -0.000319   0.009655
   64  H  4  Z    0.003129  -0.000735   0.005089   0.000174   0.002042
   65  H  4  S    0.035843  -0.003480   0.039705  -0.014351  -0.638231
   66  H  4  X    0.001212   0.015556   0.002539   0.045345  -0.001949
   67  H  4  Y    0.054957  -0.003914   0.035418  -0.000529  -0.063699
   68  H  4  Z    0.052239  -0.000324   0.003431   0.001852  -0.016997
   69  H  5  S   -0.072431   0.022306  -0.208956   0.001959   0.003851
   70  H  5  S   -0.183388   0.036107  -0.336010   0.004808  -0.419732
   71  H  5  X   -0.000181   0.014265   0.001701   0.022657  -0.000154
   72  H  5  Y   -0.003184  -0.000302  -0.000106  -0.000365  -0.012235
   73  H  5  Z   -0.010874  -0.000152   0.000252  -0.000180   0.003418
   74  H  5  S   -0.043150   0.003239  -0.041734   0.002901  -1.138500
   75  H  5  X    0.001681   0.012624   0.002447   0.052823   0.000766
   76  H  5  Y    0.050981  -0.004700   0.042989  -0.001052   0.036384
   77  H  5  Z   -0.005832   0.003091  -0.022997  -0.000972  -0.024762

                     11         12         13         14         15
                    0.0149     0.0250     0.0627     0.0712     0.0791
                     A          A          A          A          A   
    1  C  1  S   -0.001266   0.002392   0.000870   0.007665   0.002903
    2  C  1  S    0.067511  -0.017207  -0.001293  -0.012166   0.044024
    3  C  1  S    0.185582  -0.128948  -0.047961  -0.389234   0.154012
    4  C  1  X   -0.002956  -0.003331   0.172027  -0.014807   0.001810
    5  C  1  Y   -0.067325  -0.118446  -0.000771   0.037384   0.011591
    6  C  1  Z   -0.036298   0.005086   0.000536   0.013777   0.054343
    7  C  1  X   -0.005128  -0.009233   0.199624  -0.014512  -0.000888
    8  C  1  Y   -0.171229  -0.371973  -0.000580   0.101703   0.010335
    9  C  1  Z   -0.273393   0.105072  -0.012728   0.033173  -0.045779
   10  C  1 XX    0.002801  -0.003170  -0.000443  -0.007377  -0.006823
   11  C  1 YY    0.004869  -0.001742   0.000119   0.001072  -0.010943
   12  C  1 ZZ   -0.007670   0.004911   0.000324   0.006305   0.017765
   13  C  1 XY   -0.000091   0.000008  -0.000851   0.000216  -0.000160
   14  C  1 XZ    0.000256  -0.000074   0.006107  -0.000435  -0.000076
   15  C  1 YZ   -0.004791  -0.003812  -0.000960  -0.010503   0.003040
   16  C  1  S    0.436952  -1.745333  -1.059296 -10.806042   1.481140
   17  C  1  X   -0.020096  -0.033224  -0.624920   0.068454  -0.014551
   18  C  1  Y   -0.202707  -1.940326   0.093157   0.429007  -0.492363
   19  C  1  Z   -0.531672  -0.369269  -0.447257  -4.812847  -1.573132
   20  C  1 XX   -0.010948   0.016617   0.008016   0.081029   0.023008
   21  C  1 YY    0.022370  -0.051331  -0.009983  -0.153949   0.016601
   22  C  1 ZZ   -0.011423   0.034713   0.001966   0.072919  -0.039609
   23  C  1 XY    0.000013   0.000074   0.023584  -0.006314   0.001448
   24  C  1 XZ    0.000742   0.000879   0.040828  -0.003529   0.002450
   25  C  1 YZ   -0.043191   0.099595  -0.004636   0.004485   0.113934
   26  C  2  S   -0.001255  -0.000746  -0.000975  -0.005485   0.005506
   27  C  2  S   -0.072987   0.048085   0.003285   0.040749   0.030725
   28  C  2  S   -0.231269   0.245304   0.064054   0.429007   0.052207
   29  C  2  X    0.003825  -0.000774   0.127746  -0.010388   0.001280
   30  C  2  Y   -0.085114  -0.046009  -0.012015  -0.141967   0.061024
   31  C  2  Z   -0.027789   0.023396   0.001656   0.004706  -0.075624
   32  C  2  X    0.007078  -0.001805   0.145143  -0.020074   0.003635
   33  C  2  Y   -0.160122   0.093820   0.021656   0.115978  -0.141971
   34  C  2  Z   -0.249369   0.149124  -0.008336   0.044529  -0.064014
   35  C  2 XX   -0.003384   0.001481  -0.000122   0.001449  -0.010010
   36  C  2 YY   -0.001759   0.002145   0.000244  -0.000529  -0.013494
   37  C  2 ZZ    0.005143  -0.003626  -0.000122  -0.000919   0.023504
   38  C  2 XY   -0.000244  -0.000005   0.003929  -0.000199   0.000053
   39  C  2 XZ    0.000220   0.000258  -0.013354   0.001196  -0.000049
   40  C  2 YZ    0.008180   0.007555   0.000401   0.001941  -0.006703
   41  C  2  S   -0.498521   2.281038   1.091763  11.104213  -0.281744
   42  C  2  X    0.022232   0.005647  -0.591296   0.069773  -0.010814
   43  C  2  Y   -0.555787   1.022792  -0.017843   0.317339  -0.059310
   44  C  2  Z   -0.623468  -0.233928  -0.431346  -4.179686   1.871081
   45  C  2 XX    0.007826  -0.041114  -0.007516  -0.076069   0.063209
   46  C  2 YY   -0.063294   0.033125   0.006104   0.084767  -0.027153
   47  C  2 ZZ    0.055468   0.007989   0.001412  -0.008699  -0.036056
   48  C  2 XY    0.001912  -0.000885  -0.039658   0.000650  -0.000739
   49  C  2 XZ    0.001295  -0.001393  -0.015307   0.000838  -0.000926
   50  C  2 YZ   -0.072393   0.084862   0.002122   0.059687   0.082980
   51  H  3  S    0.016257   0.015002  -0.000549  -0.022757  -0.017810
   52  H  3  S    0.671443  -0.547074  -0.081985  -0.849513   0.214661
   53  H  3  X   -0.000129   0.000146  -0.005763   0.000339   0.000141
   54  H  3  Y    0.010288   0.000128   0.000943   0.009782  -0.008465
   55  H  3  Z    0.008189  -0.000475   0.000234   0.005325   0.007031
   56  H  3  S    2.555808  -1.431386   0.317069   3.480951  -0.149040
   57  H  3  X    0.002277  -0.003977   0.038790  -0.008532   0.002508
   58  H  3  Y   -0.083374   0.133088   0.015338   0.136729  -0.084896
   59  H  3  Z   -0.021186   0.003434   0.018620   0.139977  -0.096693
   60  H  4  S   -0.009495   0.012732  -0.001809  -0.023257  -0.024121
   61  H  4  S   -0.447115  -0.453407   0.049130   0.590366  -0.345050
   62  H  4  X    0.000035   0.000079  -0.003528   0.000366   0.000082
   63  H  4  Y    0.007601   0.002781   0.000209  -0.000187   0.003631
   64  H  4  Z    0.007145   0.002819  -0.000731  -0.010517  -0.011271
   65  H  4  S   -2.040160  -3.109398   0.026551   0.445461  -1.128836
   66  H  4  X   -0.001644  -0.001008   0.070393  -0.004739   0.001067
   67  H  4  Y   -0.060226  -0.052902  -0.000095   0.032715  -0.011625
   68  H  4  Z   -0.008121  -0.053190   0.008866   0.144941   0.029787
   69  H  5  S    0.002740  -0.002505   0.001801   0.025435  -0.038379
   70  H  5  S   -0.160684   0.860183   0.026306   0.406478   0.096625
   71  H  5  X   -0.000272  -0.000001  -0.004193   0.000303  -0.000157
   72  H  5  Y   -0.002472   0.004220   0.000074  -0.001349  -0.006292
   73  H  5  Z    0.003256  -0.007294  -0.000247  -0.002357  -0.014314
   74  H  5  S   -0.489815   3.803136  -0.394384  -4.340417   0.579607
   75  H  5  X    0.001408  -0.001804   0.030885  -0.004573  -0.000614
   76  H  5  Y    0.063817  -0.091809  -0.000782  -0.002420  -0.090769
   77  H  5  Z    0.051410   0.068487   0.009062   0.100940   0.038145

                     16         17         18         19         20
                    0.1117     0.1126     0.1167     0.1280     0.1459
                     A          A          A          A          A   
    1  C  1  S    0.005594   0.001738  -0.038828  -0.014845  -0.015022
    2  C  1  S   -0.058215  -0.013228  -0.204851  -0.019062  -0.120740
    3  C  1  S   -0.986185  -0.261018   0.323372   0.524203   0.533944
    4  C  1  X   -0.057058   0.229409  -0.000163   0.007206   0.000091
    5  C  1  Y    0.111112   0.023896  -0.084358   0.237426   0.039943
    6  C  1  Z    0.002601   0.000467   0.121477   0.000882   0.130799
    7  C  1  X   -0.055303   0.179062  -0.000525  -0.018748  -0.007683
    8  C  1  Y   -0.410300  -0.110000   0.295606  -0.931016  -0.170492
    9  C  1  Z   -1.205137  -0.321450  -1.552484  -0.380729   1.548082
   10  C  1 XX    0.000918   0.000119   0.019900   0.016705  -0.039539
   11  C  1 YY   -0.000236   0.000009   0.003785  -0.008194   0.048858
   12  C  1 ZZ   -0.000682  -0.000127  -0.023685  -0.008510  -0.009320
   13  C  1 XY   -0.000712   0.001110  -0.000333  -0.000056   0.001225
   14  C  1 XZ    0.001583  -0.006691  -0.000112   0.000180  -0.000176
   15  C  1 YZ    0.023564   0.005796  -0.007297   0.009258  -0.016632
   16  C  1  S   -5.583439  -1.332333   5.087845   5.288648   0.173308
   17  C  1  X    0.521231  -2.174964   0.010182  -0.103716  -0.035343
   18  C  1  Y   -0.301537  -0.059842   1.844355  -6.050246  -2.450438
   19  C  1  Z   -3.530251  -0.874417  -1.934644   1.710449   0.572626
   20  C  1 XX    0.045453   0.012683  -0.160791  -0.037106  -0.096197
   21  C  1 YY    0.179027   0.047613   0.342776   0.201510  -0.661047
   22  C  1 ZZ   -0.224480  -0.060296  -0.181985  -0.164404   0.757244
   23  C  1 XY    0.011080  -0.032168   0.009227   0.007431  -0.008992
   24  C  1 XZ    0.015718  -0.054929  -0.000034   0.003616   0.007855
   25  C  1 YZ   -0.059266  -0.015030  -0.014722   0.331015   0.322371
   26  C  2  S    0.008344   0.002573  -0.036025  -0.026340   0.024668
   27  C  2  S    0.109304   0.028331  -0.112647  -0.099335   0.013220
   28  C  2  S    0.471912   0.112675   1.282422   0.781563  -2.185804
   29  C  2  X    0.056387  -0.234579  -0.000900  -0.000835   0.003759
   30  C  2  Y    0.176158   0.043771  -0.007574   0.001800  -0.092944
   31  C  2  Z    0.058007   0.013949  -0.085150  -0.008574  -0.067586
   32  C  2  X    0.070949  -0.217727  -0.006785  -0.007607   0.000483
   33  C  2  Y   -0.354085  -0.111364   0.135898   0.403789  -0.512874
   34  C  2  Z   -1.335567  -0.363204  -0.892321   0.124132   1.091612
   35  C  2 XX   -0.004670  -0.001213   0.005425   0.013562  -0.011850
   36  C  2 YY    0.005940   0.001284   0.002456  -0.007878   0.017806
   37  C  2 ZZ   -0.001270  -0.000071  -0.007881  -0.005684  -0.005956
   38  C  2 XY    0.000962  -0.005902  -0.000374  -0.000075   0.000490
   39  C  2 XZ    0.000690  -0.004057   0.000109  -0.000398   0.000423
   40  C  2 YZ   -0.015767  -0.003343   0.004073  -0.017104   0.001506
   41  C  2  S    4.018980   0.855067   2.617384  -0.909898  -1.954523
   42  C  2  X   -0.495153   2.180142   0.009722  -0.003633   0.000519
   43  C  2  Y   -2.722770  -0.725439  -0.760450   3.502765   0.704264
   44  C  2  Z   -4.102648  -1.026663  -0.136146   2.245109   1.088293
   45  C  2 XX    0.008129   0.002305  -0.128041  -0.071365  -0.023762
   46  C  2 YY   -0.300101  -0.080056  -0.128881   0.040217   0.196430
   47  C  2 ZZ    0.291971   0.077752   0.256922   0.031147  -0.172668
   48  C  2 XY   -0.007286   0.062180  -0.001752  -0.001608   0.002919
   49  C  2 XZ    0.026054  -0.081275  -0.001033  -0.003633  -0.001210
   50  C  2 YZ   -0.239641  -0.064994   0.095227   0.144043   0.187212
   51  H  3  S   -0.021317  -0.000374   0.010630  -0.087334   0.102441
   52  H  3  S    2.189880   0.629643  -0.540497  -1.784436   0.606160
   53  H  3  X    0.000429  -0.000507  -0.000210  -0.000317   0.000123
   54  H  3  Y   -0.019186  -0.005338   0.011454   0.011035  -0.008247
   55  H  3  Z   -0.011658  -0.003420  -0.001854   0.015101  -0.005216
   56  H  3  S    6.009994   1.570568   0.155497  -3.844113  -0.775181
   57  H  3  X    0.037936  -0.113463  -0.005941  -0.013259   0.005766
   58  H  3  Y   -0.596574  -0.165643   0.247678   0.281191   0.214928
   59  H  3  Z   -0.375295  -0.102454   0.067847   0.160747  -0.141074
   60  H  4  S    0.027761   0.004526  -0.002528  -0.057887   0.099519
   61  H  4  S   -1.041583  -0.277857  -1.678107  -3.136991   0.717422
   62  H  4  X   -0.000095  -0.000336  -0.000233  -0.000429  -0.000464
   63  H  4  Y   -0.010573  -0.002890  -0.009501  -0.022815  -0.024126
   64  H  4  Z   -0.008673  -0.002388  -0.000956  -0.011050   0.005799
   65  H  4  S   -3.792177  -0.957805  -0.770673  -5.118226  -1.968914
   66  H  4  X   -0.025336   0.086347  -0.010521  -0.018830  -0.001608
   67  H  4  Y   -0.320569  -0.083482  -0.440802  -0.569750  -0.475120
   68  H  4  Z   -0.296060  -0.074162  -0.206696  -0.570112   0.399913
   69  H  5  S   -0.019649  -0.003203  -0.017626  -0.022676   0.225835
   70  H  5  S   -0.034978  -0.010095  -2.730361   1.097332   2.824004
   71  H  5  X   -0.000446   0.001466   0.000446  -0.000210   0.000124
   72  H  5  Y   -0.007829  -0.002204   0.026090  -0.016515   0.011454
   73  H  5  Z    0.000642   0.000141  -0.013656   0.014699  -0.000218
   74  H  5  S   -1.204046  -0.307550  -4.239172   6.561548   2.816963
   75  H  5  X   -0.030189   0.117894   0.008498  -0.002446   0.000719
   76  H  5  Y   -0.006816  -0.001626   0.669118  -0.421178   0.140873
   77  H  5  Z    0.102151   0.023963  -0.421387   0.163753   0.435736

                     21         22         23         24         25
                    0.1684     0.1954     0.2193     0.2531     0.2856
                     A          A          A          A          A   
    1  C  1  S    0.049155   0.018712   0.000356  -0.005167  -0.009919
    2  C  1  S    0.158049   0.012315   0.000860  -0.030378  -0.137274
    3  C  1  S   -2.126192  -0.559657   0.013099   0.747671   0.394153
    4  C  1  X   -0.005654   0.005830   0.001583  -0.002959   0.002862
    5  C  1  Y   -0.065870   0.124021  -0.017450  -0.199744   0.008686
    6  C  1  Z   -0.062023  -0.020145   0.001238   0.075264  -0.015657
    7  C  1  X   -0.006790   0.000789  -0.068913  -0.001260   0.008877
    8  C  1  Y   -0.093726   0.602435  -0.026397  -0.226429   0.085716
    9  C  1  Z   -1.011781   1.218183   0.066043   0.746474   2.410471
   10  C  1 XX    0.014199  -0.024786   0.001713  -0.015399  -0.023689
   11  C  1 YY   -0.005800   0.025756  -0.002182   0.017524  -0.073733
   12  C  1 ZZ   -0.008398  -0.000970   0.000469  -0.002124   0.097423
   13  C  1 XY   -0.002159   0.002633   0.047300  -0.002417  -0.000397
   14  C  1 XZ    0.000028   0.000025  -0.002691  -0.000904   0.000851
   15  C  1 YZ   -0.037615   0.037413  -0.005633  -0.031538  -0.013157
   16  C  1  S  -18.281061 -20.766892  -0.589004 -10.382085   2.297740
   17  C  1  X   -0.025706   0.032799   0.014782  -0.025296   0.005845
   18  C  1  Y   -0.148229   2.485821  -0.129710  -1.737354  -0.969985
   19  C  1  Z   -6.200007  -5.886989  -0.186086  -2.283635   4.009896
   20  C  1 XX    0.179686   0.119833  -0.012530   0.085563  -0.275739
   21  C  1 YY    0.140916  -0.558233   0.003026  -0.208962   0.128073
   22  C  1 ZZ   -0.320602   0.438400   0.009505   0.123400   0.147666
   23  C  1 XY    0.001011  -0.014803  -0.177574   0.014958  -0.006341
   24  C  1 XZ    0.005264  -0.013773  -0.014329   0.016999  -0.007112
   25  C  1 YZ    0.446876  -0.197146   0.076286   0.857738   0.211501
   26  C  2  S   -0.045698  -0.017556  -0.000299  -0.004347   0.034193
   27  C  2  S   -0.197992  -0.048545  -0.001996  -0.000680   0.162971
   28  C  2  S    1.617770  -0.509722   0.009521  -0.355947  -0.640910
   29  C  2  X    0.006080  -0.008944  -0.039977   0.000105   0.004757
   30  C  2  Y   -0.039043   0.063270   0.013472   0.288182  -0.039135
   31  C  2  Z   -0.109607  -0.006513  -0.004287   0.021571  -0.250551
   32  C  2  X    0.001656  -0.021464  -0.233815  -0.012946   0.011924
   33  C  2  Y   -0.149090   0.795251   0.022170   0.386859   0.422825
   34  C  2  Z   -1.205593   1.123428   0.051965   0.784640   1.575041
   35  C  2 XX   -0.016318   0.012203  -0.000616   0.014608   0.029287
   36  C  2 YY    0.011637   0.003442   0.000301  -0.021605   0.021726
   37  C  2 ZZ    0.004682  -0.015645   0.000315   0.006996  -0.051013
   38  C  2 XY   -0.001498   0.001508   0.022041  -0.000673  -0.001399
   39  C  2 XZ    0.000296   0.000579   0.009195  -0.000048  -0.000696
   40  C  2 YZ    0.017889  -0.052544   0.003921   0.010160  -0.007444
   41  C  2  S   18.509409  20.915722   0.605480  11.027104  -3.989640
   42  C  2  X    0.047392  -0.002263  -0.166685   0.007214  -0.012415
   43  C  2  Y   -1.676930  -1.008627   0.014285   1.597653   1.300408
   44  C  2  Z   -6.131789  -5.235046  -0.228963  -2.427154   1.595487
   45  C  2 XX   -0.185500  -0.162582   0.016103  -0.004928   0.187134
   46  C  2 YY   -0.166206   0.200775   0.010492   0.201104   0.183635
   47  C  2 ZZ    0.351705  -0.038193  -0.026594  -0.196176  -0.370769
   48  C  2 XY   -0.010156   0.009342   0.255228  -0.022148   0.006477
   49  C  2 XZ    0.003887  -0.020577  -0.111128   0.012344  -0.000546
   50  C  2 YZ    0.337122   0.275749   0.039011   0.612340   0.332517
   51  H  3  S    0.176999  -0.180099   0.008023  -0.091811  -0.023957
   52  H  3  S   -0.274792  -3.012092  -0.171352  -2.920047  -2.150607
   53  H  3  X    0.000115  -0.000556  -0.004089   0.000528  -0.000303
   54  H  3  Y    0.013071  -0.002287   0.000768  -0.003171   0.002516
   55  H  3  Z    0.005017  -0.007255   0.000201  -0.004571  -0.012253
   56  H  3  S    3.138794   1.718688   0.148892   0.170640  -2.682097
   57  H  3  X   -0.023738   0.000252   0.523373  -0.035082  -0.063732
   58  H  3  Y    0.598970   0.624756   0.029062  -0.238223   0.712503
   59  H  3  Z    0.158778  -0.198341   0.062756   0.215025   0.242419
   60  H  4  S   -0.159309   0.216530  -0.012853   0.014107   0.017496
   61  H  4  S   -0.599490   3.604321  -0.110963  -0.767527   1.182060
   62  H  4  X    0.000197   0.000331  -0.000656   0.000388   0.000174
   63  H  4  Y    0.019889   0.001687   0.001165  -0.000033   0.015465
   64  H  4  Z    0.022131  -0.001642   0.002297   0.024507  -0.008884
   65  H  4  S   -2.005790   0.916394  -0.119745  -0.456046   0.908200
   66  H  4  X    0.018145  -0.005795  -0.731113   0.057831  -0.020656
   67  H  4  Y    0.136401   0.194139   0.013075  -0.338622   0.591572
   68  H  4  Z    0.221509   0.132053   0.051782   0.419985  -0.845454
   69  H  5  S    0.029161  -0.054789   0.012049   0.155951   0.047286
   70  H  5  S    1.538499   1.077690   0.222522   2.741634   1.917298
   71  H  5  X   -0.000500   0.000351   0.003150   0.000022  -0.000061
   72  H  5  Y   -0.015781   0.002030   0.000416   0.016394  -0.012616
   73  H  5  Z   -0.007794   0.016162  -0.002580  -0.017789  -0.017527
   74  H  5  S   -1.440003  -3.087887  -0.027293  -0.000261   2.702575
   75  H  5  X   -0.032691   0.027121   0.831539  -0.056074  -0.011579
   76  H  5  Y   -0.471440  -0.049216  -0.052473  -0.029400  -0.831973
   77  H  5  Z   -0.034907   0.605217  -0.043710  -0.521487  -0.866153

                     26         27         28         29         30
                    0.3082     0.3152     0.3553     0.3770     0.4045
                     A          A          A          A          A   
    1  C  1  S   -0.005660  -0.029996  -0.000369  -0.019705   0.040272
    2  C  1  S   -0.024852  -0.126607  -0.000896  -0.058832  -0.016982
    3  C  1  S    0.239876   1.419508   0.007652   1.768655  -2.126492
    4  C  1  X   -0.057412   0.012725  -0.246495   0.003117  -0.001614
    5  C  1  Y   -0.026292  -0.137464   0.006357   0.279730   0.055043
    6  C  1  Z   -0.049007  -0.248071  -0.000217  -0.076067  -0.000305
    7  C  1  X   -0.339079   0.053662  -0.969538   0.062427  -0.016543
    8  C  1  Y    0.072575   0.209968   0.031810   3.091859   0.303757
    9  C  1  Z    0.492712   2.251541  -0.046750   1.726705  -1.810525
   10  C  1 XX   -0.006105  -0.026317  -0.000167  -0.013467   0.018380
   11  C  1 YY   -0.001889   0.001624   0.000275   0.006432   0.008499
   12  C  1 ZZ    0.007994   0.024693  -0.000108   0.007035  -0.026879
   13  C  1 XY   -0.034194   0.006487   0.011040  -0.000452  -0.000777
   14  C  1 XZ   -0.017977   0.003111  -0.029608  -0.000789  -0.000639
   15  C  1 YZ   -0.004034  -0.022861  -0.000339  -0.050448  -0.010002
   16  C  1  S    1.429555   5.041465   0.061218   0.098316  -6.263012
   17  C  1  X   -0.106388  -0.015519  -1.112694   0.096648  -0.005399
   18  C  1  Y   -0.738412  -3.541183   0.039236   4.840709   1.586897
   19  C  1  Z    0.491837   1.436031   0.014158  -0.069956  -1.788271
   20  C  1 XX   -0.022590  -0.078988   0.002028  -0.076429   0.530197
   21  C  1 YY   -0.114110  -0.547272   0.008143  -0.334902   0.609712
   22  C  1 ZZ    0.136700   0.626260  -0.010171   0.411331  -1.139909
   23  C  1 XY    0.507519  -0.105114  -0.225951  -0.002472   0.031152
   24  C  1 XZ    0.002996  -0.003212   0.076632   0.016229   0.006851
   25  C  1 YZ    0.191085   1.035482   0.015993   0.311802   0.270114
   26  C  2  S    0.006696   0.026901  -0.000246   0.010252   0.032393
   27  C  2  S    0.026797   0.106581  -0.000226   0.028075  -0.012476
   28  C  2  S   -0.353474  -1.510714   0.021297  -0.552742  -0.279796
   29  C  2  X   -0.110053   0.025239   0.044228  -0.000445  -0.001090
   30  C  2  Y    0.006063   0.033680  -0.003822   0.034733  -0.203227
   31  C  2  Z   -0.004799   0.019699  -0.000277  -0.018201   0.034893
   32  C  2  X   -0.628491   0.118735   0.445945  -0.044404   0.028837
   33  C  2  Y   -0.098293  -0.484220  -0.042729   0.179957  -2.266933
   34  C  2  Z    0.596104   2.939215  -0.040294   2.009672  -2.949838
   35  C  2 XX    0.005350   0.027908   0.000210   0.007211   0.005630
   36  C  2 YY    0.011206   0.050562  -0.000348   0.011111  -0.021265
   37  C  2 ZZ   -0.016556  -0.078469   0.000138  -0.018322   0.015635
   38  C  2 XY    0.034835  -0.006722  -0.010215   0.000039   0.001243
   39  C  2 XZ    0.024324  -0.003822   0.015231  -0.000033   0.000323
   40  C  2 YZ   -0.004207  -0.020775  -0.000755   0.006247  -0.007379
   41  C  2  S   -1.155117  -4.041637  -0.080439   0.617088   0.708356
   42  C  2  X   -0.461571   0.065663   0.535521  -0.037277   0.036580
   43  C  2  Y    0.563399   2.583376  -0.028375  -0.626513  -2.753761
   44  C  2  Z    0.862613   3.830726   0.016963   0.603615  -1.901415
   45  C  2 XX    0.066282   0.351346  -0.003003   0.143447   0.900438
   46  C  2 YY    0.066542   0.375717  -0.007459   0.771236  -0.963476
   47  C  2 ZZ   -0.132824  -0.727063   0.010461  -0.914683   0.063037
   48  C  2 XY   -0.357426   0.067068  -0.180496  -0.004221   0.025035
   49  C  2 XZ   -0.161815   0.019573   0.326856   0.011631   0.004282
   50  C  2 YZ    0.213321   1.131908   0.010248   0.723266   0.124057
   51  H  3  S   -0.009129  -0.019241   0.000306   0.054252  -0.034938
   52  H  3  S   -0.590235  -2.909100   0.073564  -3.274941   6.791008
   53  H  3  X    0.004862  -0.000584   0.000120   0.000003   0.000006
   54  H  3  Y   -0.000316  -0.000576  -0.000105   0.000436   0.001996
   55  H  3  Z   -0.007050  -0.033879  -0.000091  -0.009565   0.008869
   56  H  3  S   -0.687616  -2.821584  -0.002094  -0.565066   3.008058
   57  H  3  X    1.490738  -0.311687  -0.383653  -0.020263   0.060688
   58  H  3  Y    0.224129   1.018698  -0.013222   0.478243  -1.433338
   59  H  3  Z   -0.204826  -1.051882  -0.015129   0.742207  -0.883648
   60  H  4  S   -0.016354  -0.049446   0.000806   0.026380   0.039134
   61  H  4  S   -0.064294  -0.565108  -0.052148   4.306895   0.160010
   62  H  4  X    0.005016  -0.000570  -0.011945   0.000117  -0.000498
   63  H  4  Y    0.000454  -0.001076   0.000227   0.005054   0.003903
   64  H  4  Z    0.000463   0.004050   0.000258   0.002861   0.000764
   65  H  4  S   -0.251050  -1.298531   0.007983   4.140579   0.210049
   66  H  4  X    1.265127  -0.248759   0.719241   0.030754   0.050655
   67  H  4  Y    0.060822   0.137507  -0.048695  -0.099319  -0.294716
   68  H  4  Z    0.129691   0.770842  -0.004153   1.549207  -0.432514
   69  H  5  S    0.004384   0.045079   0.001180   0.008749   0.021772
   70  H  5  S    0.584868   3.271406  -0.019687  -2.676318   0.514173
   71  H  5  X   -0.006330   0.001351  -0.010037   0.000079   0.000125
   72  H  5  Y    0.000775   0.008319   0.000574   0.014446   0.000582
   73  H  5  Z   -0.006403  -0.032185  -0.000182  -0.018161   0.001645
   74  H  5  S    0.809725   3.578046  -0.001413  -3.857914  -0.959551
   75  H  5  X   -0.458113   0.076099   1.619798  -0.029110  -0.028290
   76  H  5  Y   -0.106798  -0.535905  -0.026047  -0.398433  -0.216384
   77  H  5  Z    0.051224   0.407458  -0.015933  -0.908956  -0.198763

                     31         32         33         34         35
                    0.4382     0.4436     0.4482     0.4763     0.4832
                     A          A          A          A          A   
    1  C  1  S    0.064948   0.013046   0.000996   0.022147  -0.007110
    2  C  1  S    0.031475  -0.048963  -0.002063  -0.026096   0.024988
    3  C  1  S   -4.197971   0.785218   0.187993  -2.198194   0.595101
    4  C  1  X    0.005684  -0.045247   0.245788   0.014147   0.043773
    5  C  1  Y    0.026879  -0.062220  -0.007593  -0.132912  -0.048378
    6  C  1  Z    0.082452  -0.001264   0.015128  -0.012762   0.041317
    7  C  1  X    0.033962  -0.242233   1.803871   0.048967   0.303232
    8  C  1  Y   -0.616495   1.190271   0.503862  -3.614410   0.780396
    9  C  1  Z    5.904203   3.755262   0.559246  -0.815355   0.996729
   10  C  1 XX    0.017921  -0.008457   0.000011  -0.012881   0.000558
   11  C  1 YY   -0.026584  -0.005237  -0.001740   0.012908  -0.003699
   12  C  1 ZZ    0.008663   0.013693   0.001730  -0.000027   0.003141
   13  C  1 XY   -0.000561  -0.000946   0.001965   0.000105   0.004621
   14  C  1 XZ    0.000285   0.000569  -0.013886  -0.002719   0.030572
   15  C  1 YZ    0.020020   0.011915  -0.001846  -0.011748  -0.014953
   16  C  1  S   -6.825214  -3.938830  -1.209835   3.595746  -0.620056
   17  C  1  X    0.005782  -0.115904   1.139015   0.055283  -0.157213
   18  C  1  Y   -0.599460   1.618180   0.397902  -0.785413   0.388732
   19  C  1  Z    1.103953   0.237085  -0.097549   0.785363  -0.022399
   20  C  1 XX    0.580249   0.264956   0.068257  -0.457772   0.012734
   21  C  1 YY   -1.941632  -0.768687  -0.093399   0.498128  -0.343657
   22  C  1 ZZ    1.361383   0.503731   0.025142  -0.040355   0.330922
   23  C  1 XY   -0.064303   0.006897  -0.263168  -0.003720   0.298376
   24  C  1 XZ   -0.005759   0.070209  -0.116516   0.071510  -1.414502
   25  C  1 YZ    0.629441  -2.609761  -0.382124  -0.130902  -0.436847
   26  C  2  S    0.062287   0.028878   0.000338   0.053460   0.012383
   27  C  2  S   -0.000290  -0.023904  -0.010339   0.014315  -0.015985
   28  C  2  S   -6.432171  -2.515986  -0.120724  -4.259632  -1.739303
   29  C  2  X    0.003258   0.021462  -0.253379  -0.023537   0.250349
   30  C  2  Y    0.127025   0.065564   0.010132  -0.136109  -0.008420
   31  C  2  Z    0.030037  -0.082880   0.004859  -0.177731   0.021927
   32  C  2  X    0.012649   0.001848  -0.694023  -0.040006   1.517798
   33  C  2  Y   -0.736689   3.165766   0.465437  -1.456780   0.009440
   34  C  2  Z    3.068635   2.762975   0.504569  -2.387901   0.905628
   35  C  2 XX    0.033216  -0.000602  -0.000873  -0.010785   0.000270
   36  C  2 YY   -0.012935   0.026686   0.004082   0.016500   0.004449
   37  C  2 ZZ   -0.020281  -0.026084  -0.003209  -0.005716  -0.004719
   38  C  2 XY    0.000193  -0.001256   0.004337  -0.000052  -0.004275
   39  C  2 XZ    0.000041   0.002455  -0.014915  -0.002069  -0.001344
   40  C  2 YZ   -0.021032   0.053801   0.008862   0.013190   0.011232
   41  C  2  S   -0.727059   1.298828   0.856494  -4.676658   0.329287
   42  C  2  X    0.008991   0.107314  -1.175712  -0.073286   0.528040
   43  C  2  Y    0.507342   0.036329  -0.039833  -0.239293  -0.112349
   44  C  2  Z   -0.228629  -0.134761  -0.132865   0.144117  -0.056226
   45  C  2 XX    0.038481   0.219332   0.036852  -0.142553  -0.057332
   46  C  2 YY    0.499819   1.362351   0.125957   0.101717  -0.042967
   47  C  2 ZZ   -0.538300  -1.581682  -0.162809   0.040836   0.100299
   48  C  2 XY    0.015223  -0.003221  -0.661271  -0.046414   0.965754
   49  C  2 XZ    0.018981  -0.180026   1.040483   0.094981   0.278915
   50  C  2 YZ   -0.365247  -0.835600  -0.027217  -0.369724   0.212395
   51  H  3  S   -0.094534   0.182874   0.030848   0.128240   0.059306
   52  H  3  S    1.204644  -3.103205  -0.768427   6.446235   0.136252
   53  H  3  X   -0.000056   0.000825  -0.017148  -0.001737   0.021814
   54  H  3  Y   -0.018949   0.012900   0.000985   0.029335   0.002171
   55  H  3  Z   -0.020859   0.024836   0.004584   0.003222   0.008680
   56  H  3  S   -0.040218  -0.194528  -0.033551   0.891691   0.075712
   57  H  3  X   -0.014615  -0.017395   0.745702   0.102273  -1.374910
   58  H  3  Y   -0.406477  -0.211489   0.154242  -3.233456  -0.073415
   59  H  3  Z   -0.107589   1.444285   0.149497  -0.965109  -0.559410
   60  H  4  S   -0.043375  -0.080648  -0.020998   0.018045  -0.084907
   61  H  4  S    6.126663   9.280316   1.831486  -5.762178   1.983776
   62  H  4  X    0.000226  -0.002201   0.016718   0.001483  -0.004562
   63  H  4  Y    0.007514  -0.017875  -0.002861   0.003808   0.002707
   64  H  4  Z   -0.005762  -0.012182   0.000737  -0.001026   0.012738
   65  H  4  S    1.409801   1.884693   0.383481  -0.880796   0.207707
   66  H  4  X    0.003734   0.278108  -1.267879  -0.101503  -0.142768
   67  H  4  Y    1.101762   2.973699   0.551111  -1.587135   0.356104
   68  H  4  Z    1.837146   0.129066   0.051156  -1.211205   0.094286
   69  H  5  S   -0.178408   0.088411   0.016556   0.110592   0.022475
   70  H  5  S    9.096606  -2.484513  -0.780676   4.643396  -0.856952
   71  H  5  X    0.000247  -0.002815   0.007862   0.000416   0.013091
   72  H  5  Y   -0.006875  -0.005598  -0.001011   0.022520   0.001925
   73  H  5  Z    0.007188  -0.003834  -0.001943   0.003171  -0.004488
   74  H  5  S    1.541544  -0.513960  -0.205860   0.810124  -0.183480
   75  H  5  X   -0.030326   0.158153  -0.421202  -0.011812  -1.113435
   76  H  5  Y   -2.110871   1.458270   0.361572  -2.535999   0.312584
   77  H  5  Z    1.130689   0.983036   0.006530   1.420553   0.015964

                     36         37         38         39         40
                    0.4874     0.4932     0.5050     0.5566     0.5628
                     A          A          A          A          A   
    1  C  1  S    0.009126   0.104275  -0.025056   0.078136   0.012423
    2  C  1  S   -0.104077  -0.005330  -0.028023   0.023281  -0.000859
    3  C  1  S   -1.440120  -8.296426   4.299560  -8.351575  -1.180365
    4  C  1  X    0.027330   0.000567  -0.001874  -0.001464  -0.071887
    5  C  1  Y    0.168878   0.007476  -0.109522  -0.061322  -0.005796
    6  C  1  Z   -0.245719   0.323542  -0.087043  -0.142222  -0.025603
    7  C  1  X    0.226876   0.006363  -0.027565   0.139895  -1.359380
    8  C  1  Y   -0.287700  -0.879619  -7.076242  -0.148590  -0.167763
    9  C  1  Z   -2.677332  -2.644117   1.396687  -1.586947  -0.727007
   10  C  1 XX   -0.010873   0.008520  -0.006164   0.027038   0.002692
   11  C  1 YY    0.012326   0.031755  -0.008784  -0.008113  -0.000091
   12  C  1 ZZ   -0.001452  -0.040275   0.014948  -0.018925  -0.002601
   13  C  1 XY    0.002450   0.001131   0.000339  -0.000422  -0.002763
   14  C  1 XZ    0.006758   0.002443   0.001354  -0.008332   0.055089
   15  C  1 YZ    0.054104  -0.002250   0.013391  -0.027765  -0.002753
   16  C  1  S    4.642880  -4.973011  -4.838592 -14.560768  -2.460224
   17  C  1  X   -0.000391  -0.026471  -0.023682   0.024904  -0.223867
   18  C  1  Y   -0.095852  -0.559100  -1.877538   0.907097   0.168655
   19  C  1  Z    0.376445  -0.188392  -0.985685  -4.811269  -0.817647
   20  C  1 XX   -0.316855   0.296520   0.566149  -0.044001   0.020245
   21  C  1 YY    0.416825   2.649997  -0.664121  -1.815336  -0.068633
   22  C  1 ZZ   -0.099970  -2.946517   0.097972   1.859338   0.048388
   23  C  1 XY    0.087402   0.085762   0.073350   0.122125  -1.607714
   24  C  1 XZ   -0.312670  -0.120436  -0.092457   0.277798  -2.149168
   25  C  1 YZ    0.744132   0.390983   0.270719   0.193650   0.073900
   26  C  2  S   -0.002569  -0.087639  -0.031370  -0.050834  -0.010460
   27  C  2  S    0.093308  -0.080886  -0.010035   0.133858   0.016256
   28  C  2  S    1.846837  10.047867   2.808331   2.895331   0.888154
   29  C  2  X    0.040739   0.015285   0.000950  -0.049723   0.314214
   30  C  2  Y    0.070090  -0.019634  -0.017418   0.003059  -0.002807
   31  C  2  Z   -0.198543   0.174819  -0.001301  -0.080590  -0.019800
   32  C  2  X    0.303908   0.099664   0.067343  -0.190956   1.414207
   33  C  2  Y   -0.620234   1.068238   3.275581   0.609230  -0.012668
   34  C  2  Z   -2.930753  -3.065582   2.539645  -1.451450  -0.666334
   35  C  2 XX    0.013037  -0.049456   0.002821   0.010877  -0.000393
   36  C  2 YY   -0.013926   0.004297   0.006839  -0.027358  -0.002625
   37  C  2 ZZ    0.000889   0.045159  -0.009660   0.016481   0.003018
   38  C  2 XY    0.001222   0.000128  -0.000398   0.003819  -0.027188
   39  C  2 XZ   -0.001806  -0.000429  -0.001003  -0.002748   0.032963
   40  C  2 YZ   -0.031089   0.006570   0.009832  -0.014012  -0.001225
   41  C  2  S   -4.491550   5.212534   5.835171  15.530576   2.610931
   42  C  2  X    0.088188   0.033458   0.003074  -0.040413   0.385685
   43  C  2  Y   -0.258829   0.446517   0.962467  -1.170124  -0.216221
   44  C  2  Z    0.386303  -0.703844  -0.716205  -3.773333  -0.700034
   45  C  2 XX    0.245671  -0.330175  -0.026454  -0.372696  -0.070959
   46  C  2 YY    0.308185  -0.530603   1.473778  -0.933551  -0.136146
   47  C  2 ZZ   -0.553856   0.860778  -1.447324   1.306247   0.207105
   48  C  2 XY    0.192402   0.058653   0.061098  -0.002816  -0.056314
   49  C  2 XZ    0.181584   0.012857   0.077334   0.201469  -1.885693
   50  C  2 YZ   -0.941544   0.224823  -0.346940   1.034740   0.110356
   51  H  3  S   -0.178003  -0.029445   0.045862  -0.152934  -0.014380
   52  H  3  S    2.617682  -3.810666  -7.360366  -3.000170  -0.162087
   53  H  3  X    0.004652   0.002315   0.001351  -0.001107   0.001609
[...]
 II,JST,KST,LST =  2  1  1  1 NREC =         1 INTLOC =    1
 II,JST,KST,LST =  3  1  1  1 NREC =         1 INTLOC =    1
 II,JST,KST,LST =  4  1  1  1 NREC =         1 INTLOC =    1
 II,JST,KST,LST =  5  1  1  1 NREC =         1 INTLOC =    1
 II,JST,KST,LST =  6  1  1  1 NREC =         1 INTLOC =    1
 II,JST,KST,LST =  7  1  1  1 NREC =         1 INTLOC =    4
 II,JST,KST,LST =  8  1  1  1 NREC =         1 INTLOC =  250
 II,JST,KST,LST =  9  1  1  1 NREC =         1 INTLOC =  250
 II,JST,KST,LST = 10  1  1  1 NREC =         1 INTLOC =  250
 II,JST,KST,LST = 11  1  1  1 NREC =         1 INTLOC = 1576
 II,JST,KST,LST = 12  1  1  1 NREC =         1 INTLOC = 1576
 II,JST,KST,LST = 13  1  1  1 NREC =         1 INTLOC = 1576
 II,JST,KST,LST = 14  1  1  1 NREC =         1 INTLOC = 1576
 II,JST,KST,LST = 15  1  1  1 NREC =         1 INTLOC = 4744
 II,JST,KST,LST = 16  1  1  1 NREC =         1 INTLOC = 4744
 II,JST,KST,LST = 17  1  1  1 NREC =         1 INTLOC = 4744
 II,JST,KST,LST = 18  1  1  1 NREC =         1 INTLOC = 4744
 II,JST,KST,LST = 19  1  1  1 NREC =         2 INTLOC = 7077
 II,JST,KST,LST = 20  1  1  1 NREC =         2 INTLOC = 7077
 II,JST,KST,LST = 21  1  1  1 NREC =         2 INTLOC = 7077
 II,JST,KST,LST = 22  1  1  1 NREC =         2 INTLOC = 7077
 II,JST,KST,LST = 23  1  1  1 NREC =         2 INTLOC =10192
 II,JST,KST,LST = 24  1  1  1 NREC =         5 INTLOC = 2900
 II,JST,KST,LST = 25  1  1  1 NREC =         5 INTLOC = 2900
 II,JST,KST,LST = 26  1  1  1 NREC =         5 INTLOC = 6776
 II,JST,KST,LST = 27  1  1  1 NREC =         6 INTLOC = 9217
 II,JST,KST,LST = 28  1  1  1 NREC =         6 INTLOC =13093
 II,JST,KST,LST = 29  1  1  1 NREC =         9 INTLOC =10003
 II,JST,KST,LST = 30  1  1  1 NREC =        10 INTLOC =10054
 II,JST,KST,LST = 31  1  1  1 NREC =        11 INTLOC = 1359
 II,JST,KST,LST = 32  1  1  1 NREC =        15 INTLOC = 1925
 II,JST,KST,LST = 33  1  1  1 NREC =        15 INTLOC = 1925
 II,JST,KST,LST = 34  1  1  1 NREC =        17 INTLOC =13835
 II,JST,KST,LST = 35  1  1  1 NREC =        18 INTLOC = 4086
 II,JST,KST,LST = 36  1  1  1 NREC =        20 INTLOC = 5233
 II,JST,KST,LST = 37  1  1  1 NREC =        20 INTLOC = 5233
 II,JST,KST,LST = 38  1  1  1 NREC =        22 INTLOC =12339
 II,JST,KST,LST = 39  1  1  1 NREC =        26 INTLOC = 4897
 II,JST,KST,LST = 40  1  1  1 NREC =        38 INTLOC =11569
 II,JST,KST,LST = 41  1  1  1 NREC =        38 INTLOC =11569
 II,JST,KST,LST = 42  1  1  1 NREC =        42 INTLOC = 1365
 II,JST,KST,LST = 43  1  1  1 NREC =        45 INTLOC = 5407
 II,JST,KST,LST = 44  1  1  1 NREC =        47 INTLOC = 1204
 II,JST,KST,LST = 45  1  1  1 NREC =        49 INTLOC =10919
 II,JST,KST,LST = 46  1  1  1 NREC =        52 INTLOC = 6385
 II,JST,KST,LST = 47  1  1  1 NREC =        68 INTLOC =12779
 II,JST,KST,LST = 48  1  1  1 NREC =        68 INTLOC =12779
 II,JST,KST,LST = 49  1  1  1 NREC =        99 INTLOC = 1206
 II,JST,KST,LST = 50  1  1  1 NREC =        99 INTLOC = 1206
 II,JST,KST,LST = 51  1  1  1 NREC =       112 INTLOC = 6972
 II,JST,KST,LST = 52  1  1  1 NREC =       125 INTLOC = 6258
 II,JST,KST,LST = 53  1  1  1 NREC =       131 INTLOC = 4982
 II,JST,KST,LST = 54  1  1  1 NREC =       142 INTLOC =11403
 II,JST,KST,LST = 55  1  1  1 NREC =       165 INTLOC =  409
 II,JST,KST,LST = 56  1  1  1 NREC =       165 INTLOC =  409
 II,JST,KST,LST = 57  1  1  1 NREC =       169 INTLOC =10445
 II,JST,KST,LST = 58  1  1  1 NREC =       175 INTLOC =13769
 II,JST,KST,LST = 59  1  1  1 NREC =       180 INTLOC = 4627
 II,JST,KST,LST = 60  1  1  1 NREC =       198 INTLOC =10685
 II,JST,KST,LST = 61  1  1  1 NREC =       207 INTLOC =14687
 II,JST,KST,LST = 62  1  1  1 NREC =       222 INTLOC = 3221
 II,JST,KST,LST = 63  1  1  1 NREC =       234 INTLOC = 9961
 II,JST,KST,LST = 64  1  1  1 NREC =       243 INTLOC = 4096
 II,JST,KST,LST = 65  1  1  1 NREC =       263 INTLOC = 2005
 II,JST,KST,LST = 66  1  1  1 NREC =       267 INTLOC = 5433
 SCHWARZ INEQUALITY TEST SKIPPED       33519 INTEGRAL BLOCKS.
 TOTAL NUMBER OF NONZERO TWO-ELECTRON INTEGRALS =            67102896
       4482 INTEGRAL RECORDS WERE STORED ON DISK FILE  8.
  ...... END OF TWO-ELECTRON INTEGRALS .....
 CPU     0: STEP CPU TIME=     0.27 TOTAL CPU TIME=         23.5 (      0.4 MIN)
 TOTAL WALL CLOCK TIME=         24.0 SECONDS, CPU UTILIZATION IS    97.75%

          ---------------------------------------------
          MONOMER ELECTROSTATIC INTERACTION (OWN BASIS)
          ---------------------------------------------

          -------------
          GUESS OPTIONS
          -------------
          GUESS =MOSAVED           NORB  =       0          NORDER=       0
          MIX   =       F          PRTMO =       F          PUNMO =       F
          TOLZ  = 1.0E-08          TOLE  = 1.0E-05
          SYMDEN=       F          PURIFY=       F

 INITIAL GUESS ORBITALS GENERATED BY MOSAVED  ROUTINE.

 STATISTICS FOR GENERATION OF SYMMETRY ORBITAL -Q- MATRIX
 NUMBER OF CARTESIAN ATOMIC ORBITALS=        154
 NUMBER OF SPHERICAL CONTAMINANTS DROPPED=     8
 NUMBER OF LINEARLY DEPENDENT MOS DROPPED=     0
 TOTAL NUMBER OF MOS IN VARIATION SPACE=     146
 ...... END OF INITIAL ORBITAL SELECTION ......
 CPU     0: STEP CPU TIME=     0.01 TOTAL CPU TIME=         23.5 (      0.4 MIN)
 TOTAL WALL CLOCK TIME=         24.0 SECONDS, CPU UTILIZATION IS    97.75%

          ---------------------------
                  UHF SCF CALCULATION
          ---------------------------

 FINAL UHF ENERGY IS     -155.3037415570 AFTER   1 ITERATIONS
 ...... END OF UHF CALCULATION ......
 CPU     0: STEP CPU TIME=     0.08 TOTAL CPU TIME=         23.6 (      0.4 MIN)
 TOTAL WALL CLOCK TIME=         24.1 SECONDS, CPU UTILIZATION IS    97.71%

          -------------
          GUESS OPTIONS
          -------------
          GUESS =MOSAVED           NORB  =       0          NORDER=       0
          MIX   =       F          PRTMO =       F          PUNMO =       F
          TOLZ  = 1.0E-08          TOLE  = 1.0E-05
          SYMDEN=       F          PURIFY=       F

 INITIAL GUESS ORBITALS GENERATED BY MOSAVED  ROUTINE.

 STATISTICS FOR GENERATION OF SYMMETRY ORBITAL -Q- MATRIX
 NUMBER OF CARTESIAN ATOMIC ORBITALS=        154
 NUMBER OF SPHERICAL CONTAMINANTS DROPPED=     8
 NUMBER OF LINEARLY DEPENDENT MOS DROPPED=     0
 TOTAL NUMBER OF MOS IN VARIATION SPACE=     146
 ...... END OF INITIAL ORBITAL SELECTION ......
 CPU     0: STEP CPU TIME=     0.01 TOTAL CPU TIME=         23.6 (      0.4 MIN)
 TOTAL WALL CLOCK TIME=         24.1 SECONDS, CPU UTILIZATION IS    97.71%

          ---------------------------
                  UHF SCF CALCULATION
          ---------------------------

 DIRECT SCF CALCULATION, SCHWRZ=T   FDIFF=T
 SCHWARZ INEQUALITY OVERHEAD:     11935 INTEGRALS, T=        0.00

 FINAL UHF ENERGY IS     -332.1496926401 AFTER   1 ITERATIONS
 ...... END OF UHF CALCULATION ......
 CPU     0: STEP CPU TIME=     0.27 TOTAL CPU TIME=         23.8 (      0.4 MIN)
 TOTAL WALL CLOCK TIME=         24.4 SECONDS, CPU UTILIZATION IS    97.69%

 XEDA STEP ENERGY SUMMATION
 ETOT =       -155.30374156     ENUC =        103.41169582
 EEXCH=        -22.94786227

          --------------------------------------------------
          MONOMER EXCHANGE-REPULSION INTERACTION (OWN BASIS)
          --------------------------------------------------

          -------------
          GUESS OPTIONS
          -------------
          GUESS =MOSAVED           NORB  =       0          NORDER=       0
          MIX   =       F          PRTMO =       F          PUNMO =       F
          TOLZ  = 1.0E-08          TOLE  = 1.0E-05
          SYMDEN=       F          PURIFY=       F

 INITIAL GUESS ORBITALS GENERATED BY MOSAVED  ROUTINE.

 STATISTICS FOR GENERATION OF SYMMETRY ORBITAL -Q- MATRIX
 NUMBER OF CARTESIAN ATOMIC ORBITALS=        154
 NUMBER OF SPHERICAL CONTAMINANTS DROPPED=     8
 NUMBER OF LINEARLY DEPENDENT MOS DROPPED=     0
 TOTAL NUMBER OF MOS IN VARIATION SPACE=     146
 ...... END OF INITIAL ORBITAL SELECTION ......
 CPU     0: STEP CPU TIME=     0.01 TOTAL CPU TIME=         23.8 (      0.4 MIN)
 TOTAL WALL CLOCK TIME=         24.4 SECONDS, CPU UTILIZATION IS    97.69%

          ---------------------------
                  UHF SCF CALCULATION
          ---------------------------

 FINAL UHF ENERGY IS     -154.6260588068 AFTER   1 ITERATIONS
 ...... END OF UHF CALCULATION ......
 CPU     0: STEP CPU TIME=     0.08 TOTAL CPU TIME=         23.9 (      0.4 MIN)
 TOTAL WALL CLOCK TIME=         24.5 SECONDS, CPU UTILIZATION IS    97.65%

 XEDA STEP ENERGY SUMMATION
 ETOT =       -154.62605881     ENUC =        103.41169582

          ---------------------------------------------
          MONOMER ELECTROSTATIC INTERACTION (ALL BASIS)
          ---------------------------------------------

          -------------
          GUESS OPTIONS
          -------------
          GUESS =MOSAVED           NORB  =       0          NORDER=       0
          MIX   =       F          PRTMO =       F          PUNMO =       F
          TOLZ  = 1.0E-08          TOLE  = 1.0E-05
          SYMDEN=       F          PURIFY=       F

 INITIAL GUESS ORBITALS GENERATED BY MOSAVED  ROUTINE.

 STATISTICS FOR GENERATION OF SYMMETRY ORBITAL -Q- MATRIX
 NUMBER OF CARTESIAN ATOMIC ORBITALS=        154
 NUMBER OF SPHERICAL CONTAMINANTS DROPPED=     8
 NUMBER OF LINEARLY DEPENDENT MOS DROPPED=     0
 TOTAL NUMBER OF MOS IN VARIATION SPACE=     146
 ...... END OF INITIAL ORBITAL SELECTION ......
 CPU     0: STEP CPU TIME=     0.01 TOTAL CPU TIME=         23.9 (      0.4 MIN)
 TOTAL WALL CLOCK TIME=         24.5 SECONDS, CPU UTILIZATION IS    97.65%

          ---------------------------
                  UHF SCF CALCULATION
          ---------------------------

 FINAL UHF ENERGY IS     -155.3102895159 AFTER   1 ITERATIONS
 ...... END OF UHF CALCULATION ......
 CPU     0: STEP CPU TIME=     0.08 TOTAL CPU TIME=         24.0 (      0.4 MIN)
 TOTAL WALL CLOCK TIME=         24.6 SECONDS, CPU UTILIZATION IS    97.62%

          -------------
          GUESS OPTIONS
          -------------
          GUESS =MOSAVED           NORB  =       0          NORDER=       0
          MIX   =       F          PRTMO =       F          PUNMO =       F
          TOLZ  = 1.0E-08          TOLE  = 1.0E-05
          SYMDEN=       F          PURIFY=       F

 INITIAL GUESS ORBITALS GENERATED BY MOSAVED  ROUTINE.

 STATISTICS FOR GENERATION OF SYMMETRY ORBITAL -Q- MATRIX
 NUMBER OF CARTESIAN ATOMIC ORBITALS=        154
 NUMBER OF SPHERICAL CONTAMINANTS DROPPED=     8
 NUMBER OF LINEARLY DEPENDENT MOS DROPPED=     0
 TOTAL NUMBER OF MOS IN VARIATION SPACE=     146
 ...... END OF INITIAL ORBITAL SELECTION ......
 CPU     0: STEP CPU TIME=     0.01 TOTAL CPU TIME=         24.0 (      0.4 MIN)
 TOTAL WALL CLOCK TIME=         24.6 SECONDS, CPU UTILIZATION IS    97.62%

          ---------------------------
                  UHF SCF CALCULATION
          ---------------------------

 DIRECT SCF CALCULATION, SCHWRZ=T   FDIFF=T
 SCHWARZ INEQUALITY OVERHEAD:     11935 INTEGRALS, T=        0.00

 FINAL UHF ENERGY IS     -332.1723140819 AFTER   1 ITERATIONS
 ...... END OF UHF CALCULATION ......
 CPU     0: STEP CPU TIME=     0.28 TOTAL CPU TIME=         24.3 (      0.4 MIN)
 TOTAL WALL CLOCK TIME=         24.9 SECONDS, CPU UTILIZATION IS    97.63%

 XEDA STEP ENERGY SUMMATION
 ETOT =       -155.31028952     ENUC =        103.41169582
 EEXCH=        -22.94849228

          --------------------------------------------------
          MONOMER EXCHANGE-REPULSION INTERACTION (ALL BASIS)
          --------------------------------------------------

          -------------
          GUESS OPTIONS
          -------------
          GUESS =MOSAVED           NORB  =       0          NORDER=       0
          MIX   =       F          PRTMO =       F          PUNMO =       F
          TOLZ  = 1.0E-08          TOLE  = 1.0E-05
          SYMDEN=       F          PURIFY=       F

 INITIAL GUESS ORBITALS GENERATED BY MOSAVED  ROUTINE.

 STATISTICS FOR GENERATION OF SYMMETRY ORBITAL -Q- MATRIX
 NUMBER OF CARTESIAN ATOMIC ORBITALS=        154
 NUMBER OF SPHERICAL CONTAMINANTS DROPPED=     8
 NUMBER OF LINEARLY DEPENDENT MOS DROPPED=     0
 TOTAL NUMBER OF MOS IN VARIATION SPACE=     146
 ...... END OF INITIAL ORBITAL SELECTION ......
 CPU     0: STEP CPU TIME=     0.01 TOTAL CPU TIME=         24.3 (      0.4 MIN)
 TOTAL WALL CLOCK TIME=         24.9 SECONDS, CPU UTILIZATION IS    97.63%

          ---------------------------
                  UHF SCF CALCULATION
          ---------------------------

 FINAL UHF ENERGY IS     -154.6308794993 AFTER   1 ITERATIONS
 ...... END OF UHF CALCULATION ......
 CPU     0: STEP CPU TIME=     0.08 TOTAL CPU TIME=         24.4 (      0.4 MIN)
 TOTAL WALL CLOCK TIME=         25.0 SECONDS, CPU UTILIZATION IS    97.59%

 XEDA STEP ENERGY SUMMATION
 ETOT =       -154.63087950     ENUC =        103.41169582

          --------------------------------
          RESULTS OF INTERACTION ANALYSIS
          --------------------------------

     ENERGY TERMS
     T   ELECTRON KINETIC AND COULOMB POTENTIAL
     X   E-E EXCHANGE COMBINE WITH DIAGNANAL VALUE
     N   NUCLEUS-NUCLEUS REPULSION ENERGY

 --------------
 MONOMER ENERGY
 --------------

 MONOMER    1

                   OWN BASIS           ALL BASIS

 T              -93.93911709        -93.93940033
 X              -11.31312438        -11.31340163
 N               27.87476812         27.87476812
 EC              -0.47435413         -0.47485667
 E              -77.85182748        -77.85289051

 MONOMER    2

                   OWN BASIS           ALL BASIS

 T              -93.93909902        -93.93938264
 X              -11.31312611        -11.31339876
 N               27.87475094         27.87475094
 EC              -0.47435301         -0.47487725
 E              -77.85182720        -77.85290772

 ------------------------------------------------------------
 SUPER MOLECULE ENERGY  USING NON-ANTISYMMETRIC WAVEFUNCTION
 (ELECTROSTATIC ENERGY: T N CHANGE)
 ------------------------------------------------------------

              FROM OWN BASIS      FROM ALL BASIS
 T             -235.76757511       -235.77349305
 X              -22.62625049        -22.62680039
 N              103.41169582        103.41169582
 E             -154.98212978       -154.98859763

 ----------------------------------------------------------------------
 SUPER MOLECULE ENERGY  USING ANTISYMMETRIC NONORTHONORMAL WAVEFUNCTION
 (EXCHANGE ENERGY: ONLY X CHANGES)
 ----------------------------------------------------------------------

              FROM OWN BASIS      FROM ALL BASIS
 T             -235.76757511       -235.77349305
 X              -22.94786227        -22.94849228
 N              103.41169582        103.41169582
 E             -155.30374156       -155.31028952

 -----------------------------------------------------------------------
 SUPER MOLECULE ENERGY  USING ANTISYMMETRIC AND ORTHONORMAL WAVEFUNCTION
 (REPULSION ENERGY: T X CHANGE)
 -----------------------------------------------------------------------

              FROM OWN BASIS      FROM ALL BASIS
 T+X           -258.03775462       -258.04257532
 N              103.41169582        103.41169582
 E             -154.62605881       -154.63087950

 ---------------------------------------------
 SUPER MOLECULE ENERGY  USING SCF WAVEFUNCTION
 (POLARIZATION ENERGY: T X CHANGE)
 ---------------------------------------------
 T+X           -258.32151064
 N              103.41169582
 EC              -0.98565835
 E             -155.89547318


                   *******************************
                   SUMMARY OF INTERACTION ENERGIES
                     XEDA IN XIAMEN UNIVERSITY    
                    - ZHEN TANG AND PEIFENG SU -  
                   *******************************


 -------------
 OWN BASIS SET                                       HARTREE          KCAL/MOL
 -------------
 ELECTROSTATIC ENERGY                  ES=         -0.227182           -142.56
 EXCHANGE ENERGY                       EX=         -0.321612           -201.81
 REPULSION ENERGY                     REP=          0.677683            425.25
 POLARIZATION ENERGY                  POL=         -0.283756           -178.06
 ELECTRON CORRELATION                CORR=         -0.036951            -23.19
 TOTAL INTERACTION ENERGY               E=         -0.191818           -120.37
  

 -------------
 ALL BASIS SET                                       HARTREE          KCAL/MOL
 -------------
 ELECTROSTATIC ENERGY                  ES=         -0.232533           -145.92
 EXCHANGE ENERGY                       EX=         -0.321692           -201.86
 REPULSION ENERGY                     REP=          0.679410            426.34
 POLARIZATION ENERGY                  POL=         -0.278935           -175.03
 ELECTRON CORRELATION                CORR=         -0.035924            -22.54
 TOTAL INTERACTION ENERGY               E=         -0.189675           -119.02
  

                     ***************************
                     END OF INTERACTION ANALYSIS
                     ***************************

              1301896  WORDS OF DYNAMIC MEMORY USED
 EXECUTION OF GAMESS TERMINATED NORMALLY 14:31:18 25-DEC-2023    
 DDI: 263640 bytes (0.3 MB / 0 MWords) used by master data server.

 ----------------------------------------
 CPU timing information for all processes
 ========================================
 0: 23.713 + 0.682 = 24.396
 1: 23.535 + 0.537 = 24.73
 2: 23.545 + 0.550 = 24.95
 3: 23.432 + 0.556 = 23.989
 4: 23.449 + 0.689 = 24.138
 5: 23.540 + 0.568 = 24.109
 6: 23.552 + 0.599 = 24.151
 7: 23.509 + 0.557 = 24.67
 8: 23.511 + 0.636 = 24.148
 9: 23.549 + 0.526 = 24.75
 10: 23.556 + 0.583 = 24.139
 11: 23.491 + 0.534 = 24.26
 12: 23.488 + 0.627 = 24.115
 13: 23.521 + 0.530 = 24.51
 14: 23.519 + 0.582 = 24.101
 15: 23.548 + 0.531 = 24.80
 ----------------------------------------
 ddikick.x: exited gracefully.
----- accounting info -----
Files used on the master node w012 were:
-rw-r--r-- 1 xacs0647 10000  2703863 Dec 25 14:31 /job_dir/10_1685733/10.dat
-rw-r--r-- 1 xacs0647 10000      243 Dec 25 14:31 /job_dir/10_1685733/10.err
-rw-r--r-- 1 xacs0647 10000      837 Dec 25 14:30 /job_dir/10_1685733/10.F05
-rw-r--r-- 1 xacs0647 10000 51484576 Dec 25 14:31 /job_dir/10_1685733/10.F08
-rw-r--r-- 1 xacs0647 10000 49324384 Dec 25 14:31 /job_dir/10_1685733/10.F08.001
-rw-r--r-- 1 xacs0647 10000 50404480 Dec 25 14:31 /job_dir/10_1685733/10.F08.002
-rw-r--r-- 1 xacs0647 10000 46264112 Dec 25 14:31 /job_dir/10_1685733/10.F08.003
-rw-r--r-- 1 xacs0647 10000 59225264 Dec 25 14:31 /job_dir/10_1685733/10.F08.004
-rw-r--r-- 1 xacs0647 10000 48424304 Dec 25 14:31 /job_dir/10_1685733/10.F08.005
-rw-r--r-- 1 xacs0647 10000 52924704 Dec 25 14:31 /job_dir/10_1685733/10.F08.006
-rw-r--r-- 1 xacs0647 10000 44103920 Dec 25 14:31 /job_dir/10_1685733/10.F08.007
-rw-r--r-- 1 xacs0647 10000 50044448 Dec 25 14:31 /job_dir/10_1685733/10.F08.008
-rw-r--r-- 1 xacs0647 10000 52384656 Dec 25 14:31 /job_dir/10_1685733/10.F08.009
-rw-r--r-- 1 xacs0647 10000 52384656 Dec 25 14:31 /job_dir/10_1685733/10.F08.010
-rw-r--r-- 1 xacs0647 10000 52204640 Dec 25 14:31 /job_dir/10_1685733/10.F08.011
-rw-r--r-- 1 xacs0647 10000 48424304 Dec 25 14:31 /job_dir/10_1685733/10.F08.012
-rw-r--r-- 1 xacs0647 10000 50224464 Dec 25 14:31 /job_dir/10_1685733/10.F08.013
-rw-r--r-- 1 xacs0647 10000 47884256 Dec 25 14:31 /job_dir/10_1685733/10.F08.014
-rw-r--r-- 1 xacs0647 10000 51124544 Dec 25 14:31 /job_dir/10_1685733/10.F08.015
-rw-r--r-- 1 xacs0647 10000  5758720 Dec 25 14:31 /job_dir/10_1685733/10.F10
-rw-r--r-- 1 xacs0647 10000      837 Dec 25 14:30 /job_dir/10_1685733/10.inp
-rw-r--r-- 1 xacs0647 10000  2403388 Dec 25 14:31 /job_dir/10_1685733/10.out
Mon Dec 25 14:31:21 CST 2023
0.095u 0.056s 0:28.16 0.4%	0+0k 0+40io 0pf+0w
