----- GAMESS execution script 'rungms' -----
This job is running on host w012
under operating system Linux at Mon Dec 25 14:30:56 CST 2023
Available scratch disk space (Kbyte units) at beginning of the job is
Filesystem              1K-blocks    Used Available Use% Mounted on
/dev/mapper/system-root 932514944 2751688 929763256   1% /
GAMESS temporary binary files will be written to /job_dir/11_1685734
GAMESS supplementary output files will be written to /job_dir/11_1685734
Copying input file ./11.inp to your run's scratch directory...
 
Assuming a single but multicore node.
 

 Distributed Data Interface kickoff program.
 Initiating 16 compute processes on 1 nodes to run the following command:
 /share/apps/xeda-apps/xeda-td/gamess.00.x 11 

          *******************************************************
          *                                                     *
          *          GAMESS VERSION = 30 SEP 2020 (R2)          *
          *                                                     *
          *              doi.org/10.1063/5.0005188              *
          *                                                     *
          **************** 64 BIT LINUX VERSION *****************

  GAMESS HAS BEEN MADE POSSIBLE WITH IMPORTANT CONTRIBUTIONS FROM
  THE FOLLOWING INDIVIDUALS (IN ALPHABETICAL ORDER):

     IVANA ADAMOVIC, CHRISTINE AIKENS, TOMOKO AKAMA,
     YURI ALEXEEV, YURIKO AOKI, POOJA ARORA, TOSHIO ASADA,
     ANDREY ASADCHEV, KIM K. BALDRIDGE, PRADIPTA BANDYOPADHYAY,
     MARIA BARYSZ, ROB BELL, JONATHAN BENTZ, COLLEEN BERTONI,
     JERRY A. BOATZ, BRETT BODE, KURT BRORSEN, KURT R. BRORSEN,
     LAIMUTIS BYTAUTAS, CALEB CARLIN, LAURA CARRINGTON,
     GALINA CHABAN, BENOIT CHAMPAGNE, WEI CHEN, MAHITO CHIBA,
     DAN CHIPMAN, CHEOL HO CHOI, TANNER CULPITT,
     DIPAYAN DATTA, PAUL DAY, ALBERT DEFUSCO,
     NUWAN DESILVA, J. EMILIANO DEUSTUA,
     TIM DUDLEY, MICHEL DUPUIS, STEVEN T. ELBERT,
     DMITRI FEDOROV, ALEX FINDLATER, GRAHAM FLETCHER,
     MARK FREITAG, CHRISTIAN FRIEDL, DAVID GARMER,
     IGOR S. GERASIMOV, KURT GLAESEMANN, MARK S. GORDON,
     JEFFREY GOUR, FENG LONG GU, EMILIE B. GUIDEZ,
     ANASTASIA GUNINA, SHARON HAMMES-SCHIFFER, MASATAKE HARUTA,
     KIMIHIKO HIRAO, YASUHIRO IKABATA, TZVETELIN IORDANOV,
     STEPHAN IRLE, KAZUYA ISHIMURA, JOE IVANIC, FRANK JENSEN,
     JAN H. JENSEN, VISVALDAS KAIRYS, MUNEAKI KAMIYA,
     MICHIO KATOUDA, NAOAKI KAWAKAMI, DAN KEMP, BERNARD KIRTMAN,
     KAZUO KITAURA, MARIUSZ KLOBUKOWSKI, MASATO KOBAYASHI,
     PRAKASHAN KORAMBATH, JACEK KORCHOWIEC, SHIRO KOSEKI,
     KAROL KOWALSKI, JIMMY KROMANN, STANISLAW KUCHARSKI,
     HENRY KURTZ, SAROM SOK LEANG, HUI LI, SHUHUA LI, WEI LI,
     JESSE LUTZ, ALEKSANDR O. LYKHIN, MARCIN MAKOWSKI,
     JOANI MATO, NIKITA MATSUNAGA, BENEDETTA MENNUCCI,
     GRANT MERRILL, NORIYUKI MINEZAWA, VLADIMIR MIRONOV,
     EISAKU MIYOSHI, JOHN A. MONTGOMERY JR., HIROTOSHI MORI,
     JONATHAN MULLIN, MONIKA MUSIAL, SHIGERU NAGASE,
     TAKESHI NAGATA, HIROMI NAKAI, TAKAHITO NAKAJIMA,
     YUYA NAKAJIMA, HARUYUKI NAKANO, HIROYA NAKATA, SEAN NEDD,
     HEATHER NETZLOFF, KIET A. NGUYEN, YOSHIO NISHIMOTO,
     BOSILJKA NJEGIC, RYAN OLSON, MIKE PAK, ROBERTO PEVERATI,
     BUU PHAM, PIOTR PIECUCH, ANNA POMOGAEVA, DAVID POOLE,
     SPENCER PRUITT, OLIVIER QUINET, LUKE ROSKOP,
     KLAUS RUEDENBERG, ANDREW SAND, TOSAPORN SATTASATHUCHANA,
     NOZOMI SAWADA, MICHAEL W. SCHMIDT, PATRICK E. SCHNEIDER,
     JUNJI SEINO, PRACHI SHARMA, JUN SHEN, JIM SHOEMAKER,
     YINAN SHU, DEJUN SI, JONATHAN SKONE, LYUDMILA SLIPCHENKO,
     TONY SMITH, JIE SONG, MARK SPACKMAN, CASPER STEINMANN,
     WALT STEVENS, PEIFENG SU, SHUJUN SU, CHET SWALINA,
     TETSUYA TAKETSUGU, ZHEN TAO, NANDUN THELLAMUREGE
     SEIKEN TOKURA, JACOPO TOMASI, TSUGUKI TOUMA, TAKAO TSUNEDA,
     HIROAKI UMEDA, JORGE LUIS GALVEZ VALLEJO, YALI WANG,
     SIMON WEBB, AARON WEST, THERESA L. WINDUS, MARTA WLOCH,
     PENG XU, KIYOSHI YAGI, SUSUMU YANAGISAWA, YANG YANG,
     SOOHAENG YOO, TAKESHI YOSHIKAWA, FEDERICO ZAHARIEV,
     TOBY ZENG

  WHO ARE SUPPORTED BY THEIR INSTITUTION/UNIVERSITY/COMPANY/GROUP
  (IN ALPHABETICAL ORDER):

     EP ANALYTICS, FACULTES UNIVERSITAIRES NOTRE-DAME DE LA PAIX,
     INSTITUTE FOR MOLECULAR SCIENCE, IOWA STATE UNIVERSITY,
     JACKSON STATE UNIVERSITY, JOHANNES KEPLER UNIVERSITY LINZ,
     KYUSHU UNIVERSITY, MICHIGAN STATE UNIVERSITY,
     MIE UNIVERSITY, MOSCOW STATE UNIVERSITY,
     N. COPERNICUS UNIVERSITY, NAGOYA UNIVERSITY,
     NANJING UNIVERSITY, NAT. INST. OF ADVANCED INDUSTRIAL
     SCIENCE AND TECHNOLOGY, NATIONAL INST. OF STANDARDS AND
     TECHNOLOGY, NESMEYANOV INSTITUTE OF ORGANOELEMENT COMPOUNDS
     OF RUSSIAN ACADEMY OF SCIENCES, OSAKA PREFECTURE UNIVERSITY,
     PENNSYLVANIA STATE UNIVERSITY, TOKYO INSTITUTE OF TECHNOLOGY,
     UNIVERSITY OF AARHUS, UNIVERSITY OF ALBERTA,
     UNIVERSITY OF CALIFORNIA AT SANTA BARBARA,
     UNIVERSITY OF COPENHAGEN, UNIVERSITY OF IOWA,
     UNIVERSITY OF MEMPHIS, UNIVERSITY OF MINNESOTA,
     UNIVERSITY OF NEBRASKA, UNIVERSITY OF NEW ENGLAND,
     UNIVERSITY OF NOTRE DAME, UNIVERSITY OF PISA,
     UNIVERSITY OF SILESIA, UNIVERSITY OF TOKYO,
     UNIVERSITY OF ZURICH, WASEDA UNIVERSITY, YALE UNIVERSITY

  GAMESS SOFTWARE MANAGEMENT TEAM FOR THIS RELEASE:
     MARK S. GORDON (TEAM LEAD),
     BRETT BODE (SENIOR ADVISOR),
     GIUSEPPE BARCA,
     COLLEEN BERTONI,
     KRISTOPHER KEIPERT (ADVISOR),
     SAROM S. LEANG (DEVELOPMENT LEAD),
     BUU PHAM,
     JORGE LUIS GALVEZ VALLEJO (WEBSITE ADMINISTRATOR),
     PENG XU


 PARALLEL VERSION RUNNING ON       16 PROCESSORS IN        1 NODES.

 EXECUTION OF GAMESS BEGUN 14:30:56 25-DEC-2023    

            ECHO OF THE FIRST FEW INPUT CARDS -
 INPUT CARD> $CONTRL SCFTYP=UHF RUNTYP=EDA dfttyp=B3LYP ispher=1 icharg=0 mult=1 $END       
 INPUT CARD> $SYSTEM  mwords=150 memddi=150 $END                                            
 INPUT CARD> $BASIS gbasis=accd $END                                                        
 INPUT CARD> $LMOEDA MATOM(1)=5 5 MCHARG(1)=0 0 MMULT(1)=2 -2 edatyp=gks $end               
 INPUT CARD> $scf DIIS=.TRUE. ETHRSH=2.0 SWDIIS=0.005 $end                                  
 INPUT CARD> $data                                                                          
 INPUT CARD> EDA calculation with XEDA 1.0                                                  
 INPUT CARD> c1                                                                             
 INPUT CARD>C   6   -0.2132078952    0.8898619679   -1.3790284395                           
 INPUT CARD>C   6   -0.2132078952    0.8898619679   -0.0227564766                           
 INPUT CARD>H   1   -0.2390751237    1.8460276444    0.5146834705                           
 INPUT CARD>H   1   -0.2305630336   -0.0409559422   -1.9534329655                           
 INPUT CARD>H   1   -0.2028551969    1.8176102739   -1.9559743055                           
 INPUT CARD>C   6   -0.2132078952   -0.3417802809    0.8219492695                           
 INPUT CARD>C   6    0.6114573592   -1.4017587688    0.6326087371                           
 INPUT CARD>H   1    1.3605667902   -1.4114884984   -0.1645148195                           
 INPUT CARD>H   1    0.5684926513   -2.2874581812    1.2708705930                           
 INPUT CARD>H   1   -0.9211944642   -0.3545825380    1.6600078805                           
 INPUT CARD> $end                                                                           
  150000000 WORDS OF MEMORY AVAILABLE

     BASIS OPTIONS
     -------------
     GBASIS=ACCD         IGAUSS=       0      POLAR=NONE    
     NDFUNC=       0     NFFUNC=       0     DIFFSP=       F
     NPFUNC=       0      DIFFS=       F     BASNAM=        


     RUN TITLE
     ---------
  EDA calculation with XEDA 1.0                                                  

 THE POINT GROUP OF THE MOLECULE IS C1      
 THE ORDER OF THE PRINCIPAL AXIS IS     0

 ATOM      ATOMIC                      COORDINATES (BOHR)
           CHARGE         X                   Y                   Z
 C           6.0    -0.4029045003        1.6815952862       -2.6059858799
 C           6.0    -0.4029045003        1.6815952862       -0.0430035052
 H           1.0    -0.4517864743        3.4884864137        0.9726107297
 H           1.0    -0.4357009564       -0.0773955083       -3.6914530402
 H           1.0    -0.3833407373        3.4347853701       -3.6962554764
 C           6.0    -0.4029045003       -0.6458710789        1.5532588952
 C           6.0     1.1554868621       -2.6489399739        1.1954571706
 H           1.0     2.5710984215       -2.6673264968       -0.3108879298
 H           1.0     1.0742953370       -4.3226691708        2.4015971866
 H           1.0    -1.7408051187       -0.6700638369        3.1369600316

          INTERNUCLEAR DISTANCES (ANGS.)
          ------------------------------

                1 C          2 C          3 H          4 H          5 H     

   1 C       0.0000000    1.3562720 *  2.1215718 *  1.0939213 *  1.0925615 *
   2 C       1.3562720 *  0.0000000    1.0971616 *  2.1434166 *  2.1443310 *
   3 H       2.1215718 *  1.0971616 *  0.0000000    3.1068277    2.4710867 *
   4 H       1.0939213 *  2.1434166 *  3.1068277    0.0000000    1.8587745 *
   5 H       1.0925615 *  2.1443310 *  2.4710867 *  1.8587745 *  0.0000000  
   6 C       2.5221510 *  1.4934760 *  2.2094309 *  2.7916918 *  3.5185131  
   7 C       3.1588420    2.5221225 *  3.3593792    3.0411173    4.2104874  
   8 H       3.0410564    2.7916082 *  3.6920964    2.7586739 *  4.0100741  
   9 H       4.2105088    3.5185068    4.2789823    4.0101616    5.2781713  
  10 H       3.3594090    2.2094305 *  2.5728855 *  3.6921929    4.2789905  

                6 C          7 C          8 H          9 H         10 H     

   1 C       2.5221510 *  3.1588420    3.0410564    4.2105088    3.3594090  
   2 C       1.4934760 *  2.5221225 *  2.7916082 *  3.5185068    2.2094305 *
   3 H       2.2094309 *  3.3593792    3.6920964    4.2789823    2.5728855 *
   4 H       2.7916918 *  3.0411173    2.7586739 *  4.0101616    3.6921929  
   5 H       3.5185131    4.2104874    4.0100741    5.2781713    4.2789905  
   6 C       0.0000000    1.3562732 *  2.1433977 *  2.1443527 *  1.0971559 *
   7 C       1.3562732 *  0.0000000    1.0939221 *  1.0925601 *  2.1215911 *
   8 H       2.1433977 *  1.0939221 *  0.0000000    1.8587726 *  3.1068260  
   9 H       2.1443527 *  1.0925601 *  1.8587726 *  0.0000000    2.4711543 *
  10 H       1.0971559 *  2.1215911 *  3.1068260    2.4711543 *  0.0000000  

  * ... LESS THAN  3.000


     ATOMIC BASIS SET
     ----------------
 THE CONTRACTED PRIMITIVE FUNCTIONS HAVE BEEN UNNORMALIZED
 THE CONTRACTED BASIS FUNCTIONS ARE NOW NORMALIZED TO UNITY

  SHELL TYPE  PRIMITIVE        EXPONENT          CONTRACTION COEFFICIENT(S)

 C         

      1   S       1          6665.0000000    0.000691583963
      1   S       2          1000.0000000    0.005325796153
      1   S       3           228.0000000    0.027060721042
      1   S       4            64.7100000    0.101656846141
      1   S       5            21.0600000    0.274574823617
      1   S       6             7.4950000    0.448294318924
      1   S       7             2.7970000    0.284902610715
      1   S       8             0.5215000    0.015194859206

      2   S       9          6665.0000000   -0.000293269653
      2   S      10          1000.0000000   -0.002318035474
      2   S      11           228.0000000   -0.011499786039
      2   S      12            64.7100000   -0.046826727010
      2   S      13            21.0600000   -0.128466168750
      2   S      14             7.4950000   -0.301266272463
      2   S      15             2.7970000   -0.255630702330
      2   S      16             0.5215000    1.093793361012

      3   S      17             0.1596000    1.000000000000

      4   P      18             9.4390000    0.056979251590
      4   P      19             2.0020000    0.313207211501
      4   P      20             0.5456000    0.760376741738

      5   P      21             0.1517000    1.000000000000

      6   D      22             0.5500000    1.000000000000

      7   S      23             0.0469000    1.000000000000

      8   P      24             0.0404100    1.000000000000

      9   D      25             0.1510000    1.000000000000

 C         

     10   S      26          6665.0000000    0.000691583963
     10   S      27          1000.0000000    0.005325796153
     10   S      28           228.0000000    0.027060721042
     10   S      29            64.7100000    0.101656846141
     10   S      30            21.0600000    0.274574823617
     10   S      31             7.4950000    0.448294318924
     10   S      32             2.7970000    0.284902610715
     10   S      33             0.5215000    0.015194859206

     11   S      34          6665.0000000   -0.000293269653
     11   S      35          1000.0000000   -0.002318035474
     11   S      36           228.0000000   -0.011499786039
     11   S      37            64.7100000   -0.046826727010
     11   S      38            21.0600000   -0.128466168750
     11   S      39             7.4950000   -0.301266272463
     11   S      40             2.7970000   -0.255630702330
     11   S      41             0.5215000    1.093793361012

     12   S      42             0.1596000    1.000000000000

     13   P      43             9.4390000    0.056979251590
     13   P      44             2.0020000    0.313207211501
     13   P      45             0.5456000    0.760376741738

     14   P      46             0.1517000    1.000000000000

     15   D      47             0.5500000    1.000000000000

     16   S      48             0.0469000    1.000000000000

     17   P      49             0.0404100    1.000000000000

     18   D      50             0.1510000    1.000000000000

 H         

     19   S      51            13.0100000    0.033498726390
     19   S      52             1.9620000    0.234800801174
     19   S      53             0.4446000    0.813682957883

     20   S      54             0.1220000    1.000000000000

     21   P      55             0.7270000    1.000000000000

     22   S      56             0.0297400    1.000000000000

     23   P      57             0.1410000    1.000000000000

 H         

     24   S      58            13.0100000    0.033498726390
     24   S      59             1.9620000    0.234800801174
     24   S      60             0.4446000    0.813682957883

     25   S      61             0.1220000    1.000000000000

     26   P      62             0.7270000    1.000000000000

     27   S      63             0.0297400    1.000000000000

     28   P      64             0.1410000    1.000000000000

 H         

     29   S      65            13.0100000    0.033498726390
     29   S      66             1.9620000    0.234800801174
     29   S      67             0.4446000    0.813682957883

     30   S      68             0.1220000    1.000000000000

     31   P      69             0.7270000    1.000000000000

     32   S      70             0.0297400    1.000000000000

     33   P      71             0.1410000    1.000000000000

 C         

     34   S      72          6665.0000000    0.000691583963
     34   S      73          1000.0000000    0.005325796153
     34   S      74           228.0000000    0.027060721042
     34   S      75            64.7100000    0.101656846141
     34   S      76            21.0600000    0.274574823617
     34   S      77             7.4950000    0.448294318924
     34   S      78             2.7970000    0.284902610715
     34   S      79             0.5215000    0.015194859206

     35   S      80          6665.0000000   -0.000293269653
     35   S      81          1000.0000000   -0.002318035474
     35   S      82           228.0000000   -0.011499786039
     35   S      83            64.7100000   -0.046826727010
     35   S      84            21.0600000   -0.128466168750
     35   S      85             7.4950000   -0.301266272463
     35   S      86             2.7970000   -0.255630702330
     35   S      87             0.5215000    1.093793361012

     36   S      88             0.1596000    1.000000000000

     37   P      89             9.4390000    0.056979251590
     37   P      90             2.0020000    0.313207211501
     37   P      91             0.5456000    0.760376741738

     38   P      92             0.1517000    1.000000000000

     39   D      93             0.5500000    1.000000000000

     40   S      94             0.0469000    1.000000000000

     41   P      95             0.0404100    1.000000000000

     42   D      96             0.1510000    1.000000000000

 C         

     43   S      97          6665.0000000    0.000691583963
     43   S      98          1000.0000000    0.005325796153
     43   S      99           228.0000000    0.027060721042
     43   S     100            64.7100000    0.101656846141
     43   S     101            21.0600000    0.274574823617
     43   S     102             7.4950000    0.448294318924
     43   S     103             2.7970000    0.284902610715
     43   S     104             0.5215000    0.015194859206

     44   S     105          6665.0000000   -0.000293269653
     44   S     106          1000.0000000   -0.002318035474
     44   S     107           228.0000000   -0.011499786039
     44   S     108            64.7100000   -0.046826727010
     44   S     109            21.0600000   -0.128466168750
     44   S     110             7.4950000   -0.301266272463
     44   S     111             2.7970000   -0.255630702330
     44   S     112             0.5215000    1.093793361012

     45   S     113             0.1596000    1.000000000000

     46   P     114             9.4390000    0.056979251590
     46   P     115             2.0020000    0.313207211501
     46   P     116             0.5456000    0.760376741738

     47   P     117             0.1517000    1.000000000000

     48   D     118             0.5500000    1.000000000000

     49   S     119             0.0469000    1.000000000000

     50   P     120             0.0404100    1.000000000000

     51   D     121             0.1510000    1.000000000000

 H         

     52   S     122            13.0100000    0.033498726390
     52   S     123             1.9620000    0.234800801174
     52   S     124             0.4446000    0.813682957883

     53   S     125             0.1220000    1.000000000000

     54   P     126             0.7270000    1.000000000000

     55   S     127             0.0297400    1.000000000000

     56   P     128             0.1410000    1.000000000000

 H         

     57   S     129            13.0100000    0.033498726390
     57   S     130             1.9620000    0.234800801174
     57   S     131             0.4446000    0.813682957883

     58   S     132             0.1220000    1.000000000000

     59   P     133             0.7270000    1.000000000000

     60   S     134             0.0297400    1.000000000000

     61   P     135             0.1410000    1.000000000000

 H         

     62   S     136            13.0100000    0.033498726390
     62   S     137             1.9620000    0.234800801174
     62   S     138             0.4446000    0.813682957883

     63   S     139             0.1220000    1.000000000000

     64   P     140             0.7270000    1.000000000000

     65   S     141             0.0297400    1.000000000000

     66   P     142             0.1410000    1.000000000000

 TOTAL NUMBER OF BASIS SET SHELLS             =   66
 NUMBER OF CARTESIAN GAUSSIAN BASIS FUNCTIONS =  154
 NOTE: THIS RUN WILL RESTRICT THE MO VARIATION SPACE TO SPHERICAL HARMONICS.
 THE NUMBER OF ORBITALS KEPT IN THE VARIATIONAL SPACE WILL BE PRINTED LATER.
 NUMBER OF ELECTRONS                          =   30
 CHARGE OF MOLECULE                           =    0
 SPIN MULTIPLICITY                            =    1
 NUMBER OF OCCUPIED ORBITALS (ALPHA)          =   15
 NUMBER OF OCCUPIED ORBITALS (BETA )          =   15
 TOTAL NUMBER OF ATOMS                        =   10
 THE NUCLEAR REPULSION ENERGY IS      103.3813817893

 SELECTED MURRAY-HANDY-LAMING RADIAL GRID

 LEGACY BECKE'S FUZZY CELL METHOD

 SELECTED ORIGINAL BECKE'S PARTITION FUNCTION

     LEBEDEV GRID-BASED DFT OPTIONS
     ------------------------------
     DFTTYP=B3LYP   
     NRAD  =      96     NLEB  =     302
     NRAD0 =      24     NLEB0 =     110
     SWOFF =    5.00E-03 (PURE SCF -> DFT)
     SWITCH=    3.00E-04 (COARSE -> TIGHT GRID)
     THRESH=    0.00E+00 GTHRE=    1.00E+00

 GRIMME'S EMPIRICAL DISPERSION CORRECTION= F

     $CONTRL OPTIONS
     ---------------
 SCFTYP=UHF          RUNTYP=LMOEDA       EXETYP=RUN     
 MPLEVL=       0     CITYP =NONE         CCTYP =NONE         VBTYP =NONE    
 DFTTYP=B3LYP        TDDFT =NONE    
 MULT  =       1     ICHARG=       0     NZVAR =       0     COORD =UNIQUE  
 PP    =NONE         RELWFN=NONE         LOCAL =NONE         NUMGRD=       F
 ISPHER=       1     NOSYM =       0     MAXIT =      30     UNITS =ANGS    
 PLTORB=       F     MOLPLT=       F     AIMPAC=       F     FRIEND=        
 NPRINT=       7     IREST =       0     GEOM  =INPUT   
 NORMF =       0     NORMP =       0     ITOL  =      20     ICUT  =       9
 INTTYP=BEST         GRDTYP=BEST         QMTTOL= 1.0E-06

     $SYSTEM OPTIONS
     ---------------
  REPLICATED MEMORY=   150000000 WORDS (ON EVERY NODE).
 DISTRIBUTED MEMDDI=         150 MILLION WORDS IN AGGREGATE,
 MEMDDI DISTRIBUTED OVER  16 PROCESSORS IS     9375000 WORDS/PROCESSOR.
 TOTAL MEMORY REQUESTED ON EACH PROCESSOR=   159375000 WORDS.
 TIMLIM=      525600.00 MINUTES, OR     365.0 DAYS.
 PARALL= T  BALTYP=  DLB     KDIAG=    0  COREFL= F
 MXSEQ2=     300 MXSEQ3=     150  mem10=         0  mem22=         0

 Using Gaussians for PCM contribution to MEP, params: 0.10000E+01 0.10000E-07

          ----------------
          PROPERTIES INPUT
          ----------------

     MOMENTS            FIELD           POTENTIAL          DENSITY
 IEMOM =       1   IEFLD =       0   IEPOT =       0   IEDEN =       0
 WHERE =COMASS     WHERE =NUCLEI     WHERE =NUCLEI     WHERE =NUCLEI  
 OUTPUT=BOTH       OUTPUT=BOTH       OUTPUT=BOTH       OUTPUT=BOTH    
 IEMINT=       0   IEFINT=       0                     IEDINT=       0
                                                       MORB  =       0
          EXTRAPOLATION IN EFFECT
          DIIS IN EFFECT
          DIIS or SOSCF will be reset if energy rises
 ORBITAL PRINTING OPTION: NPREO=     1   154     2     1

     -------------------------------
     INTEGRAL TRANSFORMATION OPTIONS
     -------------------------------
     NWORD  =            0
     CUTOFF = 1.0E-09     MPTRAN =       0
     DIRTRF =       F     AOINTS =DUP     

          -----------------------------
          LOCALIZATION INPUT PARAMETERS
          -----------------------------
           LOCAL=RUEDNBRG      NOUTA=       0
          PRTLOC=       F      NOUTB=       0
          MAXLOC=     250     CVGLOC=1.00E-06
           FCORE=       F     SYMLOC=       F
          MOIDON=       F     EDCOMP=       F
          DIPDCM=       F      NPROT=       0
          QADDCM=       F     DEPRNT=       F
          POLNUM=       F     ORIENT=       F
          POLDYN=       F      VMTOL=1.50E-01
          NPRDTL=       2     IBOYAL=       1

          ----------------------
          INTEGRAL INPUT OPTIONS
          ----------------------
 NOPK  =       1 NORDER=       0 SCHWRZ=       T

     ------------------------------------------
     THE POINT GROUP IS C1 , NAXIS= 0, ORDER= 1
     ------------------------------------------

 -- VARIATIONAL SPACE WILL BE RESTRICTED TO PURE SPHERICAL HARMONICS ONLY --
 AFTER EXCLUDING CONTAMINANT COMBINATIONS FROM THE CARTESIAN GAUSSIAN BASIS
 SET, THE NUMBER OF SPHERICAL HARMONICS KEPT IN THE VARIATION SPACE IS  146

     DIMENSIONS OF THE SYMMETRY SUBSPACES ARE
 A   =  146

 ..... DONE SETTING UP THE RUN .....
 CPU     0: STEP CPU TIME=     0.03 TOTAL CPU TIME=          0.0 (      0.0 MIN)
 TOTAL WALL CLOCK TIME=          0.0 SECONDS, CPU UTILIZATION IS    81.42%

          --------------
          GKSEDA OPTIONS
          --------------
          NMOL  =       2          EDATYP=GKS     
          SUPBAS=       T          RDVECM=       F          ITRTN =       T

 *******************
 GKSEDA IS BEGINNING
 *******************

 NMOL =  2

 MONOMER     ATOM   CHARGE ELECTRON MULTIPLE
 -------------------------------------------
       1        5        0       15        2
       2        5        0       15       -2
 -------------------------------------------

 SAVING MOL INFO REQUIRES    598670 WORDS OF MEMORY.

          ********************
          1 ELECTRON INTEGRALS
          ********************
 ...... END OF ONE-ELECTRON INTEGRALS ......
 CPU     0: STEP CPU TIME=     0.01 TOTAL CPU TIME=          0.0 (      0.0 MIN)
 TOTAL WALL CLOCK TIME=          0.0 SECONDS, CPU UTILIZATION IS    83.31%

          -------------
          GUESS OPTIONS
          -------------
          GUESS =HUCKEL            NORB  =       0          NORDER=       0
          MIX   =       F          PRTMO =       F          PUNMO =       F
          TOLZ  = 1.0E-08          TOLE  = 1.0E-05
          SYMDEN=       F          PURIFY=       F

 INITIAL GUESS ORBITALS GENERATED BY HUCKEL   ROUTINE.
 HUCKEL GUESS REQUIRES    180842 WORDS.

 STATISTICS FOR GENERATION OF SYMMETRY ORBITAL -Q- MATRIX
 NUMBER OF CARTESIAN ATOMIC ORBITALS=        154
 NUMBER OF SPHERICAL CONTAMINANTS DROPPED=     8
 NUMBER OF LINEARLY DEPENDENT MOS DROPPED=     0
 TOTAL NUMBER OF MOS IN VARIATION SPACE=     146

 SYMMETRIES FOR INITIAL GUESS ORBITALS FOLLOW.  ALPHA SET(S).
    15 ORBITALS ARE OCCUPIED (    4 CORE ORBITALS).
     5=A        6=A        7=A        8=A        9=A       10=A       11=A   
    12=A       13=A       14=A       15=A       16=A       17=A       18=A   
    19=A       20=A       21=A       22=A       23=A       24=A       25=A   

 SYMMETRIES FOR INITIAL GUESS ORBITALS FOLLOW.   BETA SET(S).
    15 ORBITALS ARE OCCUPIED (    4 CORE ORBITALS).
     5=A        6=A        7=A        8=A        9=A       10=A       11=A   
    12=A       13=A       14=A       15=A       16=A       17=A       18=A   
    19=A       20=A       21=A       22=A       23=A       24=A       25=A   
 ...... END OF INITIAL ORBITAL SELECTION ......
 CPU     0: STEP CPU TIME=     0.02 TOTAL CPU TIME=          0.1 (      0.0 MIN)
 TOTAL WALL CLOCK TIME=          0.1 SECONDS, CPU UTILIZATION IS    87.36%

          -------------------------
          MONOMER  1 WITH OWN BASIS
          -------------------------

     ------------------------------------------
     THE POINT GROUP IS C1 , NAXIS= 0, ORDER= 1
     ------------------------------------------

 -- VARIATIONAL SPACE WILL BE RESTRICTED TO PURE SPHERICAL HARMONICS ONLY --
 AFTER EXCLUDING CONTAMINANT COMBINATIONS FROM THE CARTESIAN GAUSSIAN BASIS
 SET, THE NUMBER OF SPHERICAL HARMONICS KEPT IN THE VARIATION SPACE IS   73

     DIMENSIONS OF THE SYMMETRY SUBSPACES ARE
 A   =   73

          ********************
          1 ELECTRON INTEGRALS
          ********************
 ...... END OF ONE-ELECTRON INTEGRALS ......
 CPU     0: STEP CPU TIME=     0.01 TOTAL CPU TIME=          0.1 (      0.0 MIN)
 TOTAL WALL CLOCK TIME=          0.1 SECONDS, CPU UTILIZATION IS    88.22%

          -------------
          GUESS OPTIONS
          -------------
          GUESS =HUCKEL            NORB  =       0          NORDER=       0
          MIX   =       F          PRTMO =       F          PUNMO =       F
          TOLZ  = 1.0E-08          TOLE  = 1.0E-05
          SYMDEN=       F          PURIFY=       F

 INITIAL GUESS ORBITALS GENERATED BY HUCKEL   ROUTINE.
 HUCKEL GUESS REQUIRES     47410 WORDS.

 STATISTICS FOR GENERATION OF SYMMETRY ORBITAL -Q- MATRIX
 NUMBER OF CARTESIAN ATOMIC ORBITALS=         77
 NUMBER OF SPHERICAL CONTAMINANTS DROPPED=     4
 NUMBER OF LINEARLY DEPENDENT MOS DROPPED=     0
 TOTAL NUMBER OF MOS IN VARIATION SPACE=      73

 SYMMETRIES FOR INITIAL GUESS ORBITALS FOLLOW.  ALPHA SET(S).
     8 ORBITALS ARE OCCUPIED (    2 CORE ORBITALS).
     3=A        4=A        5=A        6=A        7=A        8=A        9=A   
    10=A       11=A       12=A       13=A       14=A       15=A       16=A   
    17=A       18=A   

 SYMMETRIES FOR INITIAL GUESS ORBITALS FOLLOW.   BETA SET(S).
     7 ORBITALS ARE OCCUPIED (    2 CORE ORBITALS).
     3=A        4=A        5=A        6=A        7=A        8=A        9=A   
    10=A       11=A       12=A       13=A       14=A       15=A       16=A   
    17=A   
 ...... END OF INITIAL ORBITAL SELECTION ......
 CPU     0: STEP CPU TIME=     0.00 TOTAL CPU TIME=          0.1 (      0.0 MIN)
 TOTAL WALL CLOCK TIME=          0.1 SECONDS, CPU UTILIZATION IS    88.70%

                    ----------------------
                    AO INTEGRAL TECHNOLOGY
                    ----------------------
     S,P,L SHELL ROTATED AXIS INTEGRALS, REPROGRAMMED BY
        KAZUYA ISHIMURA (IMS) AND JOSE SIERRA (SYNSTAR).
     S,P,D,L SHELL ROTATED AXIS INTEGRALS PROGRAMMED BY
        KAZUYA ISHIMURA (INSTITUTE FOR MOLECULAR SCIENCE).
     S,P,D,F,G SHELL TO TOTAL QUARTET ANGULAR MOMENTUM SUM 5,
        ERIC PROGRAM BY GRAHAM FLETCHER (ELORET AND NASA ADVANCED
        SUPERCOMPUTING DIVISION, AMES RESEARCH CENTER).
     S,P,D,F,G,L SHELL GENERAL RYS QUADRATURE PROGRAMMED BY
        MICHEL DUPUIS (PACIFIC NORTHWEST NATIONAL LABORATORY).

          --------------------
          2 ELECTRON INTEGRALS
          --------------------

 THE -PK- OPTION IS OFF, THE INTEGRALS ARE NOT IN SUPERMATRIX FORM.
 STORING   15000 INTEGRALS/RECORD ON DISK, USING 12 BYTES/INTEGRAL.
 TWO ELECTRON INTEGRAL EVALUATION REQUIRES   90957 WORDS OF MEMORY.
 SCHWARZ INEQUALITY OVERHEAD:      3003 INTEGRALS, T=        0.00
 II,JST,KST,LST =  1  1  1  1 NREC =         1 INTLOC =    1
 II,JST,KST,LST =  2  1  1  1 NREC =         1 INTLOC =    1
 II,JST,KST,LST =  3  1  1  1 NREC =         1 INTLOC =    1
 II,JST,KST,LST =  4  1  1  1 NREC =         1 INTLOC =    1
 II,JST,KST,LST =  5  1  1  1 NREC =         1 INTLOC =    1
 II,JST,KST,LST =  6  1  1  1 NREC =         1 INTLOC =    1
 II,JST,KST,LST =  7  1  1  1 NREC =         1 INTLOC =    4
 II,JST,KST,LST =  8  1  1  1 NREC =         1 INTLOC =  250
 II,JST,KST,LST =  9  1  1  1 NREC =         1 INTLOC =  250
 II,JST,KST,LST = 10  1  1  1 NREC =         1 INTLOC =  250
 II,JST,KST,LST = 11  1  1  1 NREC =         1 INTLOC =  339
 II,JST,KST,LST = 12  1  1  1 NREC =         1 INTLOC =  765
 II,JST,KST,LST = 13  1  1  1 NREC =         1 INTLOC =  765
 II,JST,KST,LST = 14  1  1  1 NREC =         1 INTLOC =  861
 II,JST,KST,LST = 15  1  1  1 NREC =         1 INTLOC = 2171
 II,JST,KST,LST = 16  1  1  1 NREC =         1 INTLOC = 4759
 II,JST,KST,LST = 17  1  1  1 NREC =         1 INTLOC = 4759
 II,JST,KST,LST = 18  1  1  1 NREC =         1 INTLOC = 8261
 II,JST,KST,LST = 19  1  1  1 NREC =         2 INTLOC = 5058
 II,JST,KST,LST = 20  1  1  1 NREC =         2 INTLOC = 5058
 II,JST,KST,LST = 21  1  1  1 NREC =         2 INTLOC = 5058
 II,JST,KST,LST = 22  1  1  1 NREC =         3 INTLOC = 4458
 II,JST,KST,LST = 23  1  1  1 NREC =         4 INTLOC = 4529
 II,JST,KST,LST = 24  1  1  1 NREC =         5 INTLOC = 6668
 II,JST,KST,LST = 25  1  1  1 NREC =         6 INTLOC =11857
 II,JST,KST,LST = 26  1  1  1 NREC =         7 INTLOC = 1533
 II,JST,KST,LST = 27  1  1  1 NREC =        10 INTLOC = 4897
 II,JST,KST,LST = 28  1  1  1 NREC =        10 INTLOC = 4897
 II,JST,KST,LST = 29  1  1  1 NREC =        11 INTLOC = 5008
 II,JST,KST,LST = 30  1  1  1 NREC =        12 INTLOC =10159
 II,JST,KST,LST = 31  1  1  1 NREC =        13 INTLOC =  529
 II,JST,KST,LST = 32  1  1  1 NREC =        15 INTLOC = 9636
 II,JST,KST,LST = 33  1  1  1 NREC =        16 INTLOC = 9690
 SCHWARZ INEQUALITY TEST SKIPPED           0 INTEGRAL BLOCKS.
 TOTAL NUMBER OF NONZERO TWO-ELECTRON INTEGRALS =             3899886
        269 INTEGRAL RECORDS WERE STORED ON DISK FILE  8.
  ...... END OF TWO-ELECTRON INTEGRALS .....
 CPU     0: STEP CPU TIME=     0.03 TOTAL CPU TIME=          0.1 (      0.0 MIN)
 TOTAL WALL CLOCK TIME=          0.1 SECONDS, CPU UTILIZATION IS    87.99%

          ---------------------------
              U-B3LYP SCF CALCULATION
          ---------------------------

     NUCLEAR ENERGY =        27.8762743400
     MAXIT = 30     NPUNCH=  2     MULT=  2
     EXTRAP=T  DAMP=F  SHIFT=F  RSTRCT=F  DIIS=T  SOSCF=T
         DENSITY MATRIX CONVERGENCE THRESHOLD=  1.00E-05
     COARSE -> FINE DFT GRID SWITCH THRESHOLD=  3.00E-04 (SWITCH IN $DFT)
                   HF -> DFT SWITCH THRESHOLD=  5.00E-03 (SWOFF IN $DFT)
     SOSCF WILL OPTIMIZE     520 ALPHA AND     462 BETA ROTATION ANGLES.
     SOGTOL= 2.500E-01
     MEMORY REQUIRED FOR UHF/ROHF ITERS=    298732 WORDS.

     EXCHANGE FUNCTIONAL   =B88&HFX   
     CORRELATION FUNCTIONAL=LYP88&VWN5
     DFT THRESHOLD         =.690E-08
     GRID CHANGE THRESHOLD =.300E-03
 FOR AN EULER-MACLAURIN QUADRATURE USING  96 RADIAL POINTS:
 SMALLEST GAUSSIAN PRIMITIVE EXPONENT=        0.0297400000 OF TYPE -S-
 ON ATOM NUMBER   3 HAS RADIAL NORMALIZATION=  1.000000
  LARGEST GAUSSIAN PRIMITIVE EXPONENT=     6665.0000000000 OF TYPE -S-
 ON ATOM NUMBER   1 HAS RADIAL NORMALIZATION=  1.000000
 DFT IS SWITCHED OFF, PERFORMING PURE SCF UNTIL SWOFF THRESHOLD IS REACHED.

 ITER EX      TOTAL ENERGY        E CHANGE  DENSITY CHANGE    DIIS ERROR
          * * *   INITIATING DIIS PROCEDURE   * * *
   1  0      -77.1746017146   -77.1746017146   0.500513359   0.357151660
   2  1      -77.3686608986    -0.1940591840   0.154457928   0.054065722
   3  2      -77.3847008172    -0.0160399185   0.031185730   0.025951595
   4  3      -77.3891061272    -0.0044053101   0.022125959   0.011211442
   5  4      -77.3904942959    -0.0013881687   0.012907052   0.008548372
   6  5      -77.3911422614    -0.0006479654   0.024439505   0.008543864
   7  6      -77.3922092026    -0.0010669412   0.064281095   0.008293155
   8  7      -77.3945818933    -0.0023726907   0.111416178   0.006432489
   9  8      -77.3961263559    -0.0015444626   0.067249802   0.002021295
  10  9      -77.3957052115     0.0004211444   0.042287381   0.004074532
  11 10      -77.3961971419    -0.0004919304   0.006736178   0.000705776
  12 11      -77.3962108989    -0.0000137569   0.000900130   0.000107430
 CONVERGED TO SWOFF, SO DFT CALCULATION IS NOW SWITCHED ON.
          * * *   INITIATING DIIS PROCEDURE   * * *
  13 12      -77.8300567213    -0.4338458224   0.393681939   0.062345940
  14 13      -77.8466467507    -0.0165900294   0.062651761   0.016713013
  15 14      -77.8493249372    -0.0026781866   0.024666131   0.011958546
  16 15      -77.8507807556    -0.0014558184   0.050521172   0.007366751
  17 16      -77.8517592855    -0.0009785298   0.009181692   0.003421687
  18 17      -77.8518421431    -0.0000828577   0.005994756   0.001410795
  19 18      -77.8518619336    -0.0000197904   0.002021967   0.000278846
         SWDIIS THRESHOLD HAS BEEN REACHED: SWITCHING DIIS OFF.
          ---------------START SECOND ORDER SCF---------------
  20 19      -77.8518630912    -0.0000011577   0.000136191   0.000021734
  21 20      -77.8518631042    -0.0000000129   0.000156075   0.000022890
  22 21      -77.8518631047    -0.0000000006   0.000065826   0.000022234
  23 22      -77.8518631092    -0.0000000045   0.000008524   0.000002392
  24 23      -77.8518631093    -0.0000000001   0.000011738   0.000001887

          ----------------
          ENERGY CONVERGED
          ----------------
     TIME TO FORM FOCK OPERATORS=       1.2 SECONDS (       0.1 SEC/ITER)
     TIME TO SOLVE SCF EQUATIONS=       0.1 SECONDS (       0.0 SEC/ITER)

 FINAL U-B3LYP ENERGY IS      -77.8518631093 AFTER  24 ITERATIONS
 DFT EXCHANGE + CORRELATION ENERGY =        -9.5249085507
 TOTAL ELECTRON NUMBER             =        14.9999913502

          --------------------
          SPIN SZ   =    0.500
          S-SQUARED =    0.764
          --------------------

  ----- ALPHA SET ----- 

          ------------
          EIGENVECTORS
          ------------

                      1          2          3          4          5
                  -10.2291   -10.2019    -0.7671    -0.5780    -0.4645
                     A          A          A          A          A   
    1  C  1  S    0.012155   1.009649  -0.019669   0.011336  -0.002211
    2  C  1  S   -0.001519   0.022157   0.316312  -0.227148   0.000984
    3  C  1  S    0.040193  -0.073352   0.096011  -0.324297  -0.033188
    4  C  1  X   -0.000014   0.000004  -0.000039  -0.000036   0.002850
    5  C  1  Y   -0.000025  -0.000007   0.007770   0.031514   0.341359
    6  C  1  Z   -0.001005  -0.000348   0.110740   0.206968  -0.209429
    7  C  1  X    0.000128   0.000047  -0.000075  -0.000569  -0.000894
    8  C  1  Y   -0.001339  -0.000253   0.024197   0.027215  -0.016587
    9  C  1  Z    0.038653  -0.008941  -0.029455  -0.242001   0.039901
   10  C  1 XX    0.000215  -0.001627  -0.006299   0.001493  -0.001721
   11  C  1 YY    0.000860   0.000840  -0.007580  -0.011317   0.008481
   12  C  1 ZZ   -0.001076   0.000787   0.013879   0.009824  -0.006761
   13  C  1 XY    0.000016   0.000040  -0.000050  -0.000197   0.000112
   14  C  1 XZ   -0.000000   0.000010   0.000022  -0.000210  -0.000293
   15  C  1 YZ    0.000472   0.000047   0.000210   0.002357  -0.006059
   16  C  1  S    0.015252  -0.033951   0.016509   0.138182  -0.060181
   17  C  1  X    0.000024   0.000014  -0.000196  -0.000199  -0.000877
   18  C  1  Y    0.000766   0.000819  -0.003684   0.009018  -0.058798
   19  C  1  Z    0.006205  -0.003699  -0.001949   0.011789  -0.008739
   20  C  1 XX   -0.002134   0.004868   0.006358  -0.007206  -0.006302
   21  C  1 YY   -0.004482   0.001486  -0.008192   0.105843  -0.044468
   22  C  1 ZZ    0.006615  -0.006354   0.001834  -0.098637   0.050771
   23  C  1 XY   -0.000020  -0.000039  -0.000837   0.000905  -0.001287
   24  C  1 XZ   -0.000015  -0.000028   0.000308   0.000160   0.001648
   25  C  1 YZ   -0.003127  -0.001066   0.024848   0.019340   0.104901
   26  C  2  S    1.009987  -0.013733  -0.017140  -0.006445  -0.000328
   27  C  2  S    0.022730  -0.001369   0.307117   0.268940  -0.070413
   28  C  2  S   -0.089916   0.024487   0.253074   0.492876  -0.240922
   29  C  2  X   -0.000048  -0.000006  -0.001179  -0.003275  -0.001437
   30  C  2  Y    0.000901   0.000106   0.024425   0.097784   0.255300
   31  C  2  Z   -0.000220   0.000912  -0.128287   0.119217   0.163033
   32  C  2  X    0.000165   0.000070   0.000591   0.001105  -0.000189
   33  C  2  Y   -0.003222  -0.001150  -0.057821  -0.092987   0.008699
   34  C  2  Z    0.030736  -0.016859  -0.091308  -0.220365   0.063240
   35  C  2 XX   -0.000854   0.000673  -0.011438  -0.001419  -0.000469
   36  C  2 YY    0.000520   0.000641  -0.003918   0.009840   0.005717
   37  C  2 ZZ    0.000334  -0.001314   0.015356  -0.008421  -0.005248
   38  C  2 XY   -0.000025  -0.000007   0.000219  -0.000080  -0.000390
   39  C  2 XZ   -0.000030   0.000002  -0.000017  -0.000248  -0.000286
   40  C  2 YZ    0.000887   0.000040  -0.006130  -0.001646  -0.009708
   41  C  2  S   -0.029023   0.019800  -0.018916  -0.118350   0.022001
   42  C  2  X    0.000018   0.000027   0.000242   0.000537   0.000358
   43  C  2  Y   -0.001410  -0.001330  -0.000309  -0.026877   0.018160
   44  C  2  Z    0.004238  -0.005762   0.006629   0.004862  -0.013247
   45  C  2 XX    0.005992  -0.001052  -0.006824   0.006286   0.001245
   46  C  2 YY    0.004292  -0.001758  -0.017804  -0.059791  -0.008204
   47  C  2 ZZ   -0.010284   0.002810   0.024628   0.053505   0.006960
   48  C  2 XY    0.000015  -0.000003   0.001062   0.000966   0.000851
   49  C  2 XZ    0.000075   0.000003   0.000304   0.000336   0.000677
   50  C  2 YZ   -0.004257  -0.001156   0.008739  -0.022139   0.013197
   51  H  3  S   -0.000660  -0.000102   0.124219   0.258897   0.194005
   52  H  3  S    0.021386   0.007207   0.065086   0.272428   0.107934
   53  H  3  X   -0.000043   0.000007   0.000306   0.000584   0.000413
   54  H  3  Y    0.001718  -0.000007  -0.012754  -0.016842  -0.005895
   55  H  3  Z    0.000735   0.000183  -0.011281  -0.009968  -0.005253
   56  H  3  S    0.001300   0.001929   0.003540   0.025930   0.010345
   57  H  3  X    0.000222   0.000071  -0.000109   0.002193  -0.000087
   58  H  3  Y   -0.007708  -0.002225  -0.007747  -0.042382  -0.011775
   59  H  3  Z   -0.002018  -0.000915  -0.017535  -0.029494  -0.010569
   60  H  4  S   -0.000347  -0.000854   0.116771  -0.229051  -0.141538
   61  H  4  S    0.017768   0.021919  -0.010681  -0.217867  -0.199002
   62  H  4  X   -0.000002  -0.000029   0.000253  -0.000411  -0.000138
   63  H  4  Y   -0.000211  -0.001550   0.014382  -0.016890   0.000589
   64  H  4  Z   -0.000612  -0.001016   0.012531  -0.005363  -0.009988
   65  H  4  S    0.001769   0.002005   0.000043  -0.012811  -0.041622
   66  H  4  X    0.000091   0.000137  -0.000322  -0.001033  -0.001298
   67  H  4  Y    0.004844   0.006794  -0.009313  -0.020692  -0.049686
   68  H  4  Z    0.002441   0.003031   0.008877  -0.033978   0.011192
   69  H  5  S   -0.000192  -0.000915   0.126489  -0.203014   0.341195
   70  H  5  S    0.009346   0.019031   0.014930  -0.225267   0.435286
   71  H  5  X   -0.000006   0.000012  -0.000160   0.000226  -0.000166
   72  H  5  Y   -0.000078   0.001520  -0.014507   0.016635  -0.010234
   73  H  5  Z   -0.000421  -0.000946   0.011300  -0.004935   0.005111
   74  H  5  S    0.001701   0.001133   0.002195  -0.013795   0.045590
   75  H  5  X   -0.000047  -0.000073   0.000461   0.000808  -0.000244
   76  H  5  Y   -0.002370  -0.006014   0.000620   0.020089  -0.072598
   77  H  5  Z    0.001984   0.002962  -0.001988  -0.053654   0.040798

                      6          7          8          9         10
                   -0.4137    -0.2852    -0.2732    -0.0196    -0.0019
                     A          A          A          A          A   
    1  C  1  S    0.000013  -0.000085   0.000587   0.000097  -0.002988
    2  C  1  S   -0.036397  -0.006706   0.050091   0.002375   0.084551
    3  C  1  S   -0.169992  -0.003625   0.022816   0.005160   0.345789
    4  C  1  X   -0.007799   0.389576   0.044413   0.403701  -0.000636
    5  C  1  Y   -0.254817   0.008565  -0.134667  -0.006840   0.029437
    6  C  1  Z   -0.320117  -0.018398   0.111996   0.000254  -0.096130
    7  C  1  X   -0.001174   0.214428   0.026376   0.338841  -0.001213
    8  C  1  Y    0.060572  -0.007642   0.032074  -0.003984   0.042135
    9  C  1  Z   -0.092326   0.001279  -0.021612   0.000410  -0.283528
   10  C  1 XX   -0.001154   0.000001   0.000526   0.000069   0.000938
   11  C  1 YY    0.010644   0.000137  -0.000655   0.000001  -0.002785
   12  C  1 ZZ   -0.009490  -0.000138   0.000130  -0.000070   0.001847
   13  C  1 XY    0.000160   0.000618   0.000074   0.000047   0.000013
   14  C  1 XZ   -0.000352   0.021512   0.002839  -0.030077  -0.000026
   15  C  1 YZ    0.013705  -0.004119   0.040270  -0.000657   0.001419
   16  C  1  S   -0.038838  -0.020469   0.156494  -0.001353   1.298397
   17  C  1  X    0.000234   0.028504   0.004109   0.563394   0.002127
   18  C  1  Y    0.051282  -0.002324   0.019982  -0.008987   0.037453
   19  C  1  Z   -0.014961  -0.005472   0.039742  -0.003092  -0.297724
   20  C  1 XX    0.000075   0.000684  -0.005630  -0.000328  -0.039358
   21  C  1 YY   -0.044109  -0.004198   0.028883   0.000105   0.024865
   22  C  1 ZZ    0.044034   0.003513  -0.023253   0.000223   0.014492
   23  C  1 XY   -0.002025   0.004485   0.000562  -0.003293   0.000873
   24  C  1 XZ   -0.000562   0.003791  -0.000264  -0.041852   0.000395
   25  C  1 YZ   -0.051739   0.003181  -0.034909   0.002607   0.026955
   26  C  2  S   -0.000882  -0.000045  -0.000779   0.000065  -0.002529
   27  C  2  S    0.030784   0.020435  -0.150324  -0.003830   0.056071
   28  C  2  S   -0.055323   0.040274  -0.310445  -0.009197   0.366673
   29  C  2  X   -0.008592   0.439572   0.052533  -0.411811  -0.000808
   30  C  2  Y    0.035730  -0.051370   0.471450  -0.005159   0.043769
   31  C  2  Z    0.374594   0.038035  -0.253873  -0.004009   0.082543
   32  C  2  X   -0.000925   0.254174   0.033394  -0.348808  -0.003222
   33  C  2  Y   -0.066314  -0.023960   0.240777  -0.007357   0.098919
   34  C  2  Z    0.045078   0.029337  -0.220977  -0.002246  -0.007238
   35  C  2 XX   -0.001603   0.000178  -0.004815   0.000169  -0.001696
   36  C  2 YY    0.011053   0.000358   0.000074  -0.000021  -0.004880
   37  C  2 ZZ   -0.009450  -0.000536   0.004741  -0.000148   0.006576
   38  C  2 XY   -0.000272  -0.000465  -0.000735  -0.000087   0.000009
   39  C  2 XZ    0.000014  -0.020303  -0.002291  -0.032127  -0.000005
   40  C  2 YZ    0.017750  -0.001886   0.020307   0.000908  -0.003606
   41  C  2  S   -0.014335   0.032976  -0.259587  -0.002765   0.871217
   42  C  2  X    0.000630   0.031149   0.004375  -0.515344  -0.005215
   43  C  2  Y   -0.035879  -0.002122   0.023683  -0.000864   0.190704
   44  C  2  Z   -0.015265  -0.001445   0.007116  -0.005016   0.147614
   45  C  2 XX   -0.004014  -0.001227   0.006892   0.000272  -0.039505
   46  C  2 YY   -0.036938   0.002953  -0.022923  -0.000468  -0.012574
   47  C  2 ZZ    0.040952  -0.001726   0.016031   0.000196   0.052079
   48  C  2 XY    0.001873  -0.001333  -0.000045   0.008352  -0.001070
   49  C  2 XZ    0.000297  -0.007163  -0.000769  -0.037637  -0.000398
   50  C  2 YZ   -0.017127   0.000847  -0.011958   0.002252   0.033202
   51  H  3  S    0.233091  -0.021287   0.194926   0.008091   0.005256
   52  H  3  S    0.278151  -0.027435   0.248739   0.008042  -0.358374
   53  H  3  X    0.000068   0.015547   0.002193  -0.020929   0.000284
   54  H  3  Y   -0.009271  -0.000488   0.006783  -0.000191  -0.010686
   55  H  3  Z    0.001056   0.002223  -0.015802  -0.000161  -0.001550
   56  H  3  S    0.036881  -0.002298   0.027589   0.009523  -0.898759
   57  H  3  X    0.000748   0.015156   0.003310  -0.053523  -0.001063
   58  H  3  Y   -0.038780   0.002208  -0.017855   0.001680   0.031735
   59  H  3  Z   -0.036339   0.004129  -0.028958   0.000486   0.033018
   60  H  4  S    0.324758  -0.013027   0.145266  -0.004696   0.006858
   61  H  4  S    0.390824  -0.016925   0.193167  -0.007850  -0.404477
   62  H  4  X    0.000055   0.014321   0.001719   0.021807   0.000157
   63  H  4  Y    0.009646  -0.000132  -0.000870  -0.000228   0.009657
   64  H  4  Z    0.003119  -0.000733   0.005087   0.000191   0.002035
   65  H  4  S    0.035788  -0.003523   0.039715  -0.014454  -0.637991
   66  H  4  X    0.000915   0.015567   0.002428   0.045335  -0.001646
   67  H  4  Y    0.054962  -0.003904   0.035429  -0.000384  -0.063709
   68  H  4  Z    0.052205  -0.000304   0.003417   0.001882  -0.016950
   69  H  5  S   -0.072338   0.022677  -0.208878   0.002241   0.003854
   70  H  5  S   -0.183248   0.036705  -0.335877   0.005084  -0.419940
   71  H  5  X   -0.000160   0.014263   0.001731   0.022659  -0.000115
   72  H  5  Y   -0.003190  -0.000253  -0.000105  -0.000279  -0.012234
   73  H  5  Z   -0.010873  -0.000140   0.000256  -0.000169   0.003419
   74  H  5  S   -0.043116   0.003274  -0.041730   0.003328  -1.138526
   75  H  5  X    0.001513   0.012631   0.002357   0.052829   0.000627
   76  H  5  Y    0.050986  -0.004726   0.042975  -0.000776   0.036438
   77  H  5  Z   -0.005814   0.003168  -0.022956  -0.001014  -0.024838

                     11         12         13         14         15
                    0.0149     0.0250     0.0627     0.0712     0.0790
                     A          A          A          A          A   
    1  C  1  S   -0.001263   0.002385   0.000925   0.007676   0.002909
    2  C  1  S    0.067530  -0.017202  -0.001350  -0.012097   0.044073
    3  C  1  S    0.185322  -0.128728  -0.050668  -0.389292   0.153777
    4  C  1  X   -0.002590  -0.002935   0.171956  -0.015541   0.001800
    5  C  1  Y   -0.067292  -0.118491   0.000011   0.037284   0.011514
    6  C  1  Z   -0.036296   0.005102   0.000607   0.013798   0.054314
    7  C  1  X   -0.004238  -0.007936   0.199471  -0.015905  -0.001020
    8  C  1  Y   -0.171175  -0.371993   0.000618   0.101566   0.010253
    9  C  1  Z   -0.273424   0.105149  -0.011901   0.032567  -0.046099
   10  C  1 XX    0.002803  -0.003170  -0.000461  -0.007379  -0.006813
   11  C  1 YY    0.004865  -0.001738   0.000123   0.001061  -0.010946
   12  C  1 ZZ   -0.007669   0.004908   0.000338   0.006318   0.017759
   13  C  1 XY   -0.000099   0.000005  -0.000860   0.000179  -0.000140
   14  C  1 XZ    0.000281  -0.000058   0.006116  -0.000404  -0.000085
   15  C  1 YZ   -0.004795  -0.003813  -0.000974  -0.010503   0.003024
   16  C  1  S    0.435411  -1.741899  -1.112185 -10.806577   1.486989
   17  C  1  X   -0.018871  -0.025743  -0.624885   0.070006  -0.011790
   18  C  1  Y   -0.202088  -1.940805   0.094517   0.428527  -0.492752
   19  C  1  Z   -0.531779  -0.367589  -0.468956  -4.813126  -1.570352
   20  C  1 XX   -0.010948   0.016588   0.008164   0.081153   0.022977
   21  C  1 YY    0.022398  -0.051283  -0.010739  -0.153817   0.016719
   22  C  1 ZZ   -0.011450   0.034695   0.002574   0.072663  -0.039696
   23  C  1 XY   -0.000230   0.000262   0.023683  -0.005274   0.001469
   24  C  1 XZ    0.000812   0.000487   0.040771  -0.003878   0.001850
   25  C  1 YZ   -0.043243   0.099691  -0.004459   0.004485   0.114179
   26  C  2  S   -0.001253  -0.000746  -0.000992  -0.005484   0.005501
   27  C  2  S   -0.072985   0.048051   0.003468   0.040745   0.030652
   28  C  2  S   -0.231103   0.244814   0.065183   0.429478   0.052202
   29  C  2  X    0.004217  -0.000576   0.127759  -0.010267   0.001031
   30  C  2  Y   -0.085122  -0.046014  -0.011889  -0.141938   0.061075
   31  C  2  Z   -0.027836   0.023388   0.001680   0.004652  -0.075649
   32  C  2  X    0.007917  -0.002213   0.145026  -0.021110   0.004433
   33  C  2  Y   -0.160024   0.093442   0.022970   0.115719  -0.142259
   34  C  2  Z   -0.249649   0.149123  -0.007910   0.044101  -0.064412
   35  C  2 XX   -0.003384   0.001483  -0.000160   0.001440  -0.010019
   36  C  2 YY   -0.001768   0.002141   0.000288  -0.000542  -0.013481
   37  C  2 ZZ    0.005152  -0.003624  -0.000128  -0.000898   0.023500
   38  C  2 XY   -0.000254   0.000000   0.003921  -0.000207   0.000071
   39  C  2 XZ    0.000179   0.000233  -0.013353   0.001228  -0.000025
   40  C  2 YZ    0.008179   0.007563   0.000344   0.001955  -0.006693
   41  C  2  S   -0.497507   2.277283   1.143563  11.104774  -0.287823
   42  C  2  X    0.024797   0.001478  -0.590905   0.070997  -0.011260
   43  C  2  Y   -0.556059   1.022680  -0.022030   0.317931  -0.059944
   44  C  2  Z   -0.624500  -0.232810  -0.451015  -4.178400   1.873603
   45  C  2 XX    0.007806  -0.041117  -0.007463  -0.076033   0.063222
   46  C  2 YY   -0.063256   0.033031   0.006074   0.084651  -0.027259
   47  C  2 ZZ    0.055450   0.008086   0.001390  -0.008618  -0.035963
   48  C  2 XY    0.002314  -0.001250  -0.039705  -0.000037  -0.000294
   49  C  2 XZ    0.001594  -0.001772  -0.015350   0.000569  -0.001345
   50  C  2 YZ   -0.072446   0.084907   0.002362   0.059620   0.083008
   51  H  3  S    0.016274   0.015019  -0.000595  -0.022724  -0.017669
   52  H  3  S    0.671566  -0.546453  -0.085380  -0.848734   0.215426
   53  H  3  X   -0.000180   0.000153  -0.005766   0.000313   0.000178
   54  H  3  Y    0.010282   0.000130   0.000946   0.009773  -0.008461
   55  H  3  Z    0.008194  -0.000481   0.000236   0.005333   0.007035
   56  H  3  S    2.556448  -1.430721   0.332440   3.479394  -0.151469
   57  H  3  X    0.002664  -0.004632   0.038624  -0.009417   0.002928
   58  H  3  Y   -0.083322   0.132864   0.016190   0.136402  -0.084863
   59  H  3  Z   -0.021241   0.003430   0.019205   0.140108  -0.096791
   60  H  4  S   -0.009504   0.012725  -0.001850  -0.023343  -0.024194
   61  H  4  S   -0.446792  -0.453814   0.053119   0.589888  -0.345716
   62  H  4  X   -0.000003   0.000052  -0.003529   0.000386   0.000071
   63  H  4  Y    0.007608   0.002783   0.000210  -0.000185   0.003639
   64  H  4  Z    0.007142   0.002821  -0.000760  -0.010515  -0.011248
   65  H  4  S   -2.039360  -3.109430   0.028028   0.444886  -1.128846
   66  H  4  X   -0.001436  -0.000707   0.070381  -0.005342   0.001146
   67  H  4  Y   -0.060181  -0.053002   0.000461   0.032813  -0.011741
   68  H  4  Z   -0.008078  -0.053147   0.009766   0.144715   0.029882
   69  H  5  S    0.002748  -0.002494   0.001886   0.025405  -0.038358
   70  H  5  S   -0.160868   0.860089   0.029283   0.406100   0.096819
   71  H  5  X   -0.000260  -0.000006  -0.004194   0.000321  -0.000131
   72  H  5  Y   -0.002479   0.004218   0.000050  -0.001355  -0.006295
   73  H  5  Z    0.003257  -0.007296  -0.000265  -0.002365  -0.014323
   74  H  5  S   -0.490888   3.802976  -0.411488  -4.338047   0.582175
   75  H  5  X    0.001201  -0.001654   0.030808  -0.004958  -0.000363
   76  H  5  Y    0.063833  -0.091751  -0.000935  -0.002424  -0.090806
   77  H  5  Z    0.051387   0.068469   0.009899   0.100779   0.038118

                     16         17         18         19         20
                    0.1117     0.1127     0.1167     0.1279     0.1459
                     A          A          A          A          A   
    1  C  1  S    0.005586   0.001779  -0.038830  -0.014845  -0.015039
    2  C  1  S   -0.058352  -0.012548  -0.204847  -0.019022  -0.120865
    3  C  1  S   -0.988531  -0.255591   0.322969   0.524130   0.535023
    4  C  1  X   -0.055981   0.229722   0.000387   0.006570  -0.000373
    5  C  1  Y    0.111028   0.023969  -0.084365   0.237433   0.040175
    6  C  1  Z    0.002544   0.000385   0.121510   0.000758   0.130934
    7  C  1  X   -0.052269   0.179987  -0.000406  -0.014324  -0.007957
    8  C  1  Y   -0.411497  -0.106112   0.295885  -0.930738  -0.170766
    9  C  1  Z   -1.208822  -0.309314  -1.552639  -0.380623   1.547574
   10  C  1 XX    0.000960   0.000069   0.019899   0.016711  -0.039550
   11  C  1 YY   -0.000255   0.000021   0.003778  -0.008208   0.048874
   12  C  1 ZZ   -0.000705  -0.000091  -0.023677  -0.008503  -0.009324
   13  C  1 XY   -0.000702   0.001113  -0.000268   0.000102   0.000855
   14  C  1 XZ    0.001433  -0.006728  -0.000075   0.000130  -0.000071
   15  C  1 YZ    0.023628   0.005593  -0.007289   0.009276  -0.016636
   16  C  1  S   -5.590668  -1.310127   5.087319   5.289494   0.179960
   17  C  1  X    0.508281  -2.178239   0.001677  -0.081534  -0.025709
   18  C  1  Y   -0.298966  -0.065510   1.845019  -6.050277  -2.451189
   19  C  1  Z   -3.535623  -0.848910  -1.934513   1.711130   0.574586
   20  C  1 XX    0.045390   0.012791  -0.160804  -0.037141  -0.096156
   21  C  1 YY    0.180006   0.045214   0.342948   0.201852  -0.660864
   22  C  1 ZZ   -0.225396  -0.058004  -0.182145  -0.164711   0.757020
   23  C  1 XY    0.009908  -0.032496   0.007111   0.005694  -0.006608
   24  C  1 XZ    0.015448  -0.055052  -0.000549   0.002419   0.005760
   25  C  1 YZ   -0.059481  -0.014807  -0.014863   0.330950   0.322758
   26  C  2  S    0.008328   0.002583  -0.036034  -0.026352   0.024674
   27  C  2  S    0.109456   0.027729  -0.112654  -0.099370   0.013305
   28  C  2  S    0.474988   0.106349   1.283263   0.781924  -2.186387
   29  C  2  X    0.053829  -0.235224  -0.001200  -0.001014   0.004360
   30  C  2  Y    0.176789   0.041527  -0.007525   0.001759  -0.092727
   31  C  2  Z    0.058242   0.013586  -0.085140  -0.008605  -0.067530
   32  C  2  X    0.071187  -0.217721  -0.007596  -0.009934   0.003577
   33  C  2  Y   -0.353859  -0.110168   0.135836   0.403293  -0.513096
   34  C  2  Z   -1.339523  -0.352080  -0.892301   0.124206   1.090961
   35  C  2 XX   -0.004668  -0.001153   0.005437   0.013581  -0.011848
   36  C  2 YY    0.005940   0.001203   0.002444  -0.007882   0.017801
   37  C  2 ZZ   -0.001273  -0.000049  -0.007881  -0.005699  -0.005954
   38  C  2 XY    0.000861  -0.005922  -0.000376   0.000049   0.000369
   39  C  2 XZ    0.000733  -0.004056   0.000105  -0.000333   0.000438
   40  C  2 YZ   -0.015800  -0.003244   0.004069  -0.017131   0.001502
   41  C  2  S    4.027136   0.829058   2.618248  -0.909932  -1.960442
   42  C  2  X   -0.466748   2.187124   0.015679  -0.017495  -0.002972
   43  C  2  Y   -2.729608  -0.698304  -0.760239   3.501937   0.704514
   44  C  2  Z   -4.111575  -0.999760  -0.135714   2.245430   1.088957
   45  C  2 XX    0.008117   0.001997  -0.128076  -0.071438  -0.023783
   46  C  2 YY   -0.300671  -0.077200  -0.128947   0.040083   0.196312
   47  C  2 ZZ    0.292554   0.075203   0.257023   0.031354  -0.172529
   48  C  2 XY   -0.005114   0.062671  -0.001796  -0.002028   0.002020
   49  C  2 XZ    0.026577  -0.081146  -0.001721  -0.004350  -0.002347
   50  C  2 YZ   -0.240157  -0.063596   0.095385   0.144379   0.186883
   51  H  3  S   -0.021478  -0.000115   0.010549  -0.087318   0.102294
   52  H  3  S    2.193263   0.615307  -0.541057  -1.784537   0.606815
   53  H  3  X    0.000516  -0.000483  -0.000264  -0.000375   0.000161
   54  H  3  Y   -0.019210  -0.005232   0.011454   0.011028  -0.008252
   55  H  3  Z   -0.011701  -0.003361  -0.001854   0.015092  -0.005206
   56  H  3  S    6.020552   1.529682   0.154488  -3.842816  -0.774114
   57  H  3  X    0.039844  -0.112989  -0.007218  -0.014618   0.005232
   58  H  3  Y   -0.597306  -0.161993   0.247640   0.281039   0.214223
   59  H  3  Z   -0.376428  -0.100154   0.067921   0.160866  -0.141107
   60  H  4  S    0.027757   0.004450  -0.002473  -0.057939   0.099692
   61  H  4  S   -1.045212  -0.264706  -1.677430  -3.137061   0.716110
   62  H  4  X   -0.000044  -0.000315  -0.000184  -0.000326  -0.000380
   63  H  4  Y   -0.010599  -0.002777  -0.009499  -0.022821  -0.024152
   64  H  4  Z   -0.008684  -0.002292  -0.000946  -0.011049   0.005794
   65  H  4  S   -3.799333  -0.926494  -0.769437  -5.117563  -1.970189
   66  H  4  X   -0.023268   0.086928  -0.008094  -0.015951  -0.000676
   67  H  4  Y   -0.321492  -0.079792  -0.440843  -0.569893  -0.475702
   68  H  4  Z   -0.296861  -0.071019  -0.206410  -0.569700   0.399487
   69  H  5  S   -0.019831  -0.002867  -0.017636  -0.022763   0.225869
   70  H  5  S   -0.037413  -0.004642  -2.731243   1.096354   2.823257
   71  H  5  X   -0.000407   0.001478   0.000363  -0.000144   0.000064
   72  H  5  Y   -0.007842  -0.002182   0.026089  -0.016530   0.011468
   73  H  5  Z    0.000639   0.000159  -0.013663   0.014699  -0.000218
   74  H  5  S   -1.207220  -0.296299  -4.239483   6.559368   2.816901
   75  H  5  X   -0.029192   0.118122   0.006577  -0.000399  -0.000778
   76  H  5  Y   -0.006745  -0.001984   0.669259  -0.421076   0.141167
   77  H  5  Z    0.102063   0.024031  -0.421784   0.163654   0.435746

                     21         22         23         24         25
                    0.1684     0.1954     0.2193     0.2531     0.2856
                     A          A          A          A          A   
    1  C  1  S    0.049143   0.018731   0.000388  -0.005173  -0.009964
    2  C  1  S    0.157948   0.012406   0.000757  -0.030445  -0.137288
    3  C  1  S   -2.127111  -0.560826   0.013851   0.749336   0.396297
    4  C  1  X   -0.005484   0.005188   0.001676  -0.002360   0.002758
    5  C  1  Y   -0.065946   0.123845  -0.018257  -0.199704   0.008642
    6  C  1  Z   -0.061865  -0.020312   0.001177   0.075221  -0.015682
    7  C  1  X   -0.007088  -0.002856  -0.068641  -0.000420   0.008218
    8  C  1  Y   -0.093559   0.602372  -0.029125  -0.226675   0.087014
    9  C  1  Z   -1.012711   1.218982   0.073020   0.744270   2.414602
   10  C  1 XX    0.014205  -0.024816   0.001288  -0.015387  -0.023707
   11  C  1 YY   -0.005816   0.025801  -0.001815   0.017455  -0.073745
   12  C  1 ZZ   -0.008390  -0.000985   0.000527  -0.002068   0.097452
   13  C  1 XY   -0.002051   0.002257   0.047335  -0.002686  -0.000178
   14  C  1 XZ    0.000185  -0.000126  -0.002684  -0.000792   0.000855
   15  C  1 YZ   -0.037627   0.037382  -0.005525  -0.031551  -0.013111
   16  C  1  S  -18.281175 -20.788228  -0.672050 -10.364847   2.301424
   17  C  1  X   -0.023592   0.023688   0.015332  -0.018723   0.007104
   18  C  1  Y   -0.148287   2.486253  -0.126358  -1.740925  -0.970247
   19  C  1  Z   -6.197700  -5.894187  -0.208625  -2.276022   4.009604
   20  C  1 XX    0.179644   0.120042  -0.011113   0.085651  -0.275975
   21  C  1 YY    0.141007  -0.558796  -0.000071  -0.207627   0.126910
   22  C  1 ZZ   -0.320652   0.438754   0.011184   0.121976   0.149065
   23  C  1 XY    0.001122  -0.011065  -0.177930   0.017022  -0.008207
   24  C  1 XZ    0.003720  -0.013351  -0.014413   0.013741  -0.006615
   25  C  1 YZ    0.447421  -0.196154   0.076324   0.858318   0.211298
   26  C  2  S   -0.045693  -0.017585  -0.000329  -0.004346   0.034208
   27  C  2  S   -0.197979  -0.048602  -0.001954  -0.000596   0.163029
   28  C  2  S    1.618142  -0.510860   0.007105  -0.353140  -0.645463
   29  C  2  X    0.006310  -0.009251  -0.040022  -0.000981   0.005122
   30  C  2  Y   -0.039048   0.063390   0.014271   0.288041  -0.039113
   31  C  2  Z   -0.109713  -0.006377  -0.004312   0.021460  -0.250345
   32  C  2  X    0.002068  -0.024383  -0.233948  -0.014199   0.009101
   33  C  2  Y   -0.150550   0.794328   0.026801   0.385929   0.422315
   34  C  2  Z   -1.206523   1.124329   0.058904   0.783294   1.579777
   35  C  2 XX   -0.016312   0.012200  -0.000702   0.014621   0.029328
   36  C  2 YY    0.011622   0.003477   0.000478  -0.021607   0.021741
   37  C  2 ZZ    0.004690  -0.015678   0.000224   0.006987  -0.051069
   38  C  2 XY   -0.001660   0.001520   0.022019  -0.000560  -0.001377
   39  C  2 XZ    0.000220   0.000797   0.009190  -0.000101  -0.000645
   40  C  2 YZ    0.017927  -0.052540   0.003848   0.010169  -0.007511
   41  C  2  S   18.506396  20.937795   0.689582  11.009726  -3.992001
   42  C  2  X    0.054843   0.001920  -0.166520   0.000945  -0.017276
   43  C  2  Y   -1.678077  -1.008667   0.013308   1.600459   1.300283
   44  C  2  Z   -6.133281  -5.239537  -0.250613  -2.420735   1.597631
   45  C  2 XX   -0.185530  -0.162896   0.014237  -0.004542   0.187025
   46  C  2 YY   -0.166691   0.200677   0.013451   0.200705   0.183692
   47  C  2 ZZ    0.352221  -0.037781  -0.027688  -0.196163  -0.370717
   48  C  2 XY   -0.010259   0.006824   0.255449  -0.023954   0.006286
   49  C  2 XZ    0.002574  -0.021963  -0.111263   0.010330  -0.001195
   50  C  2 YZ    0.337325   0.276401   0.040079   0.612552   0.333435
   51  H  3  S    0.177160  -0.180180   0.007286  -0.091744  -0.024087
   52  H  3  S   -0.272065  -3.013725  -0.188850  -2.918711  -2.152732
   53  H  3  X    0.000057  -0.000537  -0.004097   0.000557  -0.000308
   54  H  3  Y    0.013073  -0.002300   0.000736  -0.003147   0.002494
   55  H  3  Z    0.004993  -0.007255   0.000169  -0.004583  -0.012297
   56  H  3  S    3.140327   1.720643   0.157320   0.165932  -2.682163
   57  H  3  X   -0.026655  -0.003656   0.522639  -0.036013  -0.067529
   58  H  3  Y    0.598580   0.624697   0.033553  -0.239243   0.713399
   59  H  3  Z    0.158570  -0.198097   0.062599   0.215758   0.241543
   60  H  4  S   -0.159271   0.216440  -0.012466   0.014138   0.017342
   61  H  4  S   -0.600797   3.604234  -0.104818  -0.771895   1.184458
   62  H  4  X    0.000109   0.000330  -0.000668   0.000374   0.000115
   63  H  4  Y    0.019871   0.001702   0.001167  -0.000032   0.015454
   64  H  4  Z    0.022159  -0.001631   0.002310   0.024498  -0.008889
   65  H  4  S   -2.006178   0.916511  -0.116566  -0.456179   0.907148
   66  H  4  X    0.017741  -0.005653  -0.731356   0.061749  -0.022265
   67  H  4  Y    0.135773   0.194528   0.011239  -0.338815   0.591820
   68  H  4  Z    0.221635   0.132179   0.051584   0.418928  -0.845237
   69  H  5  S    0.029337  -0.054732   0.012363   0.155950   0.047239
   70  H  5  S    1.538942   1.081384   0.235294   2.739734   1.918993
   71  H  5  X   -0.000440   0.000317   0.003155  -0.000047  -0.000011
   72  H  5  Y   -0.015771   0.002030   0.000439   0.016386  -0.012611
   73  H  5  Z   -0.007799   0.016140  -0.002565  -0.017802  -0.017529
   74  H  5  S   -1.439415  -3.090382  -0.039662   0.005200   2.702746
   75  H  5  X   -0.031323   0.024541   0.831782  -0.058986  -0.008342
   76  H  5  Y   -0.471267  -0.049758  -0.049806  -0.029651  -0.832591
   77  H  5  Z   -0.035180   0.605560  -0.041887  -0.522722  -0.865184

                     26         27         28         29         30
                    0.3082     0.3151     0.3553     0.3770     0.4045
                     A          A          A          A          A   
    1  C  1  S   -0.005587  -0.029954  -0.000284  -0.019685   0.040276
    2  C  1  S   -0.024571  -0.126474  -0.000902  -0.058802  -0.016993
    3  C  1  S    0.236430   1.416638   0.003039   1.770018  -2.128402
    4  C  1  X   -0.057176   0.013422  -0.246554   0.001817  -0.001830
    5  C  1  Y   -0.026171  -0.137648   0.005200   0.279800   0.055018
    6  C  1  Z   -0.048464  -0.247974  -0.000115  -0.076093  -0.000280
    7  C  1  X   -0.340172   0.051533  -0.969443   0.049137  -0.017183
    8  C  1  Y    0.071367   0.210107   0.027827   3.092536   0.301673
    9  C  1  Z    0.487967   2.247488  -0.049106   1.725320  -1.809983
   10  C  1 XX   -0.005773  -0.026335  -0.000166  -0.013451   0.018389
   11  C  1 YY   -0.002167   0.001704   0.000311   0.006381   0.008457
   12  C  1 ZZ    0.007940   0.024631  -0.000145   0.007070  -0.026846
   13  C  1 XY   -0.034244   0.006238   0.011030  -0.000433  -0.000716
   14  C  1 XZ   -0.017947   0.003182  -0.029611  -0.000604  -0.000580
   15  C  1 YZ   -0.004148  -0.022874  -0.000434  -0.050472  -0.009987
   16  C  1  S    1.427937   5.059514   0.051787   0.097182  -6.267958
   17  C  1  X   -0.102790  -0.001484  -1.112912   0.076898  -0.011703
   18  C  1  Y   -0.732031  -3.544897   0.031726   4.839907   1.585190
   19  C  1  Z    0.491867   1.439715   0.013208  -0.071233  -1.788242
   20  C  1 XX   -0.026314  -0.077994   0.003875  -0.075754   0.529855
   21  C  1 YY   -0.108647  -0.547415   0.008932  -0.335044   0.610063
   22  C  1 ZZ    0.134962   0.625409  -0.012807   0.410799  -1.139919
   23  C  1 XY    0.508493  -0.101683  -0.225935  -0.000436   0.031283
   24  C  1 XZ    0.001189  -0.007882   0.076705   0.015076   0.005994
   25  C  1 YZ    0.190910   1.037014   0.015990   0.314415   0.270511
   26  C  2  S    0.006645   0.026856  -0.000250   0.010271   0.032383
   27  C  2  S    0.026584   0.106500  -0.000326   0.028105  -0.012507
   28  C  2  S   -0.350093  -1.510555   0.024834  -0.552387  -0.278180
   29  C  2  X   -0.110198   0.024922   0.044176  -0.000601  -0.000127
   30  C  2  Y    0.005537   0.033796  -0.003895   0.034732  -0.203327
   31  C  2  Z   -0.004761   0.020021  -0.000017  -0.018095   0.034785
   32  C  2  X   -0.627564   0.119683   0.445855  -0.045432   0.039032
   33  C  2  Y   -0.102244  -0.488044  -0.042737   0.176814  -2.266027
   34  C  2  Z    0.589941   2.935494  -0.043527   2.010325  -2.950794
   35  C  2 XX    0.005019   0.027946   0.000273   0.007235   0.005615
   36  C  2 YY    0.011377   0.050517  -0.000400   0.011102  -0.021226
   37  C  2 ZZ   -0.016395  -0.078463   0.000127  -0.018336   0.015612
   38  C  2 XY    0.034811  -0.006780  -0.010203   0.000020   0.001398
   39  C  2 XZ    0.024370  -0.003702   0.015233  -0.000055   0.000358
   40  C  2 YZ   -0.004034  -0.020776  -0.000708   0.006217  -0.007410
   41  C  2  S   -1.154779  -4.058496  -0.080563   0.616149   0.711657
   42  C  2  X   -0.464883   0.053124   0.535529  -0.034957   0.049293
   43  C  2  Y    0.557120   2.584253  -0.027047  -0.626249  -2.753225
   44  C  2  Z    0.858180   3.836846   0.017303   0.605146  -1.903843
   45  C  2 XX    0.068490   0.350345  -0.001079   0.144174   0.900316
   46  C  2 YY    0.062768   0.374504  -0.010034   0.770076  -0.963127
   47  C  2 ZZ   -0.131257  -0.724849   0.011114  -0.914250   0.062811
   48  C  2 XY   -0.357644   0.065928  -0.180628  -0.006904   0.035407
   49  C  2 XZ   -0.163818   0.014151   0.326920   0.008814   0.003703
   50  C  2 YZ    0.211300   1.132161   0.011396   0.724575   0.123647
   51  H  3  S   -0.009118  -0.019452   0.000347   0.054031  -0.034955
   52  H  3  S   -0.584408  -2.902112   0.079838  -3.273064   6.789987
   53  H  3  X    0.004861  -0.000567   0.000118   0.000007   0.000004
   54  H  3  Y   -0.000290  -0.000591  -0.000092   0.000440   0.002001
   55  H  3  Z   -0.007002  -0.033884  -0.000075  -0.009584   0.008869
   56  H  3  S   -0.684284  -2.823191  -0.001265  -0.566092   3.008250
   57  H  3  X    1.490825  -0.313669  -0.383084  -0.023161   0.067398
   58  H  3  Y    0.228805   1.016345  -0.015130   0.478207  -1.431730
   59  H  3  Z   -0.202445  -1.053079  -0.017200   0.742018  -0.884806
   60  H  4  S   -0.016284  -0.049572   0.000903   0.026385   0.039179
   61  H  4  S   -0.065269  -0.570466  -0.050630   4.303813   0.157811
   62  H  4  X    0.005031  -0.000539  -0.011950   0.000087  -0.000513
   63  H  4  Y    0.000499  -0.001083   0.000194   0.005060   0.003898
   64  H  4  Z    0.000481   0.004079   0.000251   0.002880   0.000771
   65  H  4  S   -0.247729  -1.300667   0.006183   4.140192   0.208662
   66  H  4  X    1.264917  -0.246325   0.719440   0.029374   0.051749
   67  H  4  Y    0.065255   0.135454  -0.044147  -0.099878  -0.294449
   68  H  4  Z    0.129045   0.771262  -0.005219   1.548921  -0.433548
   69  H  5  S    0.004257   0.045139   0.001361   0.008601   0.021723
   70  H  5  S    0.579730   3.271940  -0.016985  -2.672952   0.518512
   71  H  5  X   -0.006337   0.001314  -0.010042   0.000020   0.000140
   72  H  5  Y    0.000724   0.008318   0.000520   0.014457   0.000566
   73  H  5  Z   -0.006375  -0.032205  -0.000189  -0.018174   0.001645
   74  H  5  S    0.803976   3.580982   0.003432  -3.856207  -0.957457
   75  H  5  X   -0.458655   0.074204   1.619948  -0.025025  -0.028960
   76  H  5  Y   -0.109007  -0.535089  -0.020272  -0.399657  -0.217145
   77  H  5  Z    0.049537   0.407931  -0.015742  -0.909992  -0.197777

                     31         32         33         34         35
                    0.4382     0.4435     0.4482     0.4763     0.4832
                     A          A          A          A          A   
    1  C  1  S    0.064964   0.012773   0.001398   0.022057  -0.006303
    2  C  1  S    0.031381  -0.049217  -0.002275  -0.025924   0.026506
    3  C  1  S   -4.193978   0.803040   0.176021  -2.191366   0.541099
    4  C  1  X    0.004781  -0.047255   0.245429   0.014667   0.043309
    5  C  1  Y    0.026730  -0.062103  -0.006885  -0.133298  -0.049741
    6  C  1  Z    0.082047  -0.001981   0.015899  -0.012138   0.047571
    7  C  1  X    0.027197  -0.263382   1.799634   0.062872   0.295538
    8  C  1  Y   -0.618115   1.189049   0.526035  -3.602844   0.806238
    9  C  1  Z    5.904600   3.749340   0.606495  -0.799516   1.015857
   10  C  1 XX    0.017907  -0.008517  -0.000009  -0.012890   0.000790
   11  C  1 YY   -0.026585  -0.005194  -0.001841   0.012877  -0.003682
   12  C  1 ZZ    0.008679   0.013710   0.001850   0.000013   0.002893
   13  C  1 XY   -0.000386  -0.000976   0.001978   0.000018   0.004655
   14  C  1 XZ    0.000268   0.000608  -0.013855  -0.002631   0.030616
   15  C  1 YZ    0.020102   0.011927  -0.001771  -0.011976  -0.015449
   16  C  1  S   -6.821165  -3.920836  -1.265359   3.583149  -0.712243
   17  C  1  X    0.002764  -0.132427   1.136267   0.058064  -0.159996
   18  C  1  Y   -0.599529   1.617203   0.418453  -0.780166   0.392162
   19  C  1  Z    1.104917   0.232690  -0.092865   0.785289  -0.023765
   20  C  1 XX    0.580820   0.262104   0.075619  -0.457587   0.019684
   21  C  1 YY   -1.943126  -0.768921  -0.104539   0.494638  -0.325482
   22  C  1 ZZ    1.362307   0.506817   0.028920  -0.037052   0.305798
   23  C  1 XY   -0.053258   0.015772  -0.262372  -0.010472   0.299471
   24  C  1 XZ   -0.006364   0.083597  -0.114414   0.069543  -1.410994
   25  C  1 YZ    0.626596  -2.606682  -0.403581  -0.135809  -0.450990
   26  C  2  S    0.062365   0.028836   0.000749   0.053580   0.011707
   27  C  2  S   -0.000200  -0.023506  -0.010787   0.014139  -0.018189
   28  C  2  S   -6.438180  -2.510287  -0.156406  -4.275417  -1.684555
   29  C  2  X    0.003165   0.022978  -0.253044  -0.022340   0.250226
   30  C  2  Y    0.127235   0.065461   0.009910  -0.136297  -0.007465
   31  C  2  Z    0.029668  -0.083155   0.004536  -0.177419   0.026385
   32  C  2  X    0.016866  -0.007636  -0.696095  -0.029310   1.515888
   33  C  2  Y   -0.733219   3.168063   0.485129  -1.453470   0.028372
   34  C  2  Z    3.067399   2.766718   0.533701  -2.375731   0.921469
   35  C  2 XX    0.033223  -0.000583  -0.000838  -0.010791  -0.000176
   36  C  2 YY   -0.012898   0.026661   0.004296   0.016542   0.004574
   37  C  2 ZZ   -0.020325  -0.026079  -0.003458  -0.005751  -0.004398
   38  C  2 XY    0.000406  -0.001418   0.004298  -0.000218  -0.004302
   39  C  2 XZ    0.000160   0.002340  -0.014925  -0.002129  -0.001334
   40  C  2 YZ   -0.020969   0.053737   0.009232   0.013303   0.011690
   41  C  2  S   -0.734863   1.300902   0.865972  -4.667874   0.412341
   42  C  2  X    0.010700   0.116110  -1.174294  -0.070870   0.528430
   43  C  2  Y    0.507458   0.036996  -0.044897  -0.240283  -0.103433
   44  C  2  Z   -0.228315  -0.132697  -0.135849   0.143162  -0.062540
   45  C  2 XX    0.038800   0.220432   0.043688  -0.142040  -0.070995
   46  C  2 YY    0.501980   1.362220   0.132814   0.101803  -0.044863
   47  C  2 ZZ   -0.540780  -1.582653  -0.176501   0.040238   0.115858
   48  C  2 XY    0.014726  -0.005247  -0.661895  -0.045039   0.962941
   49  C  2 XZ    0.016881  -0.185400   1.038337   0.097323   0.274231
   50  C  2 YZ   -0.368653  -0.834090  -0.030552  -0.365560   0.226731
   51  H  3  S   -0.094482   0.182650   0.032289   0.128968   0.061158
   52  H  3  S    1.208953  -3.113777  -0.787293   6.438887   0.077040
   53  H  3  X    0.000046   0.000898  -0.017135  -0.001828   0.021779
   54  H  3  Y   -0.018939   0.012894   0.000981   0.029329   0.002413
   55  H  3  Z   -0.020839   0.024838   0.004773   0.003318   0.009163
   56  H  3  S   -0.039033  -0.195441  -0.033713   0.891196   0.061317
   57  H  3  X   -0.014012  -0.021892   0.744678   0.113810  -1.371183
   58  H  3  Y   -0.409798  -0.207184   0.153730  -3.230241  -0.052070
   59  H  3  Z   -0.104819   1.446701   0.159972  -0.971603  -0.575326
   60  H  4  S   -0.043425  -0.080384  -0.021671   0.017070  -0.086060
   61  H  4  S    6.131159   9.261419   1.935956  -5.733888   2.046572
   62  H  4  X    0.000180  -0.002291   0.016708   0.001450  -0.004603
   63  H  4  Y    0.007496  -0.017877  -0.002918   0.003827   0.002649
   64  H  4  Z   -0.005819  -0.012238   0.000660  -0.000874   0.013325
   65  H  4  S    1.409878   1.880490   0.406295  -0.877257   0.218400
   66  H  4  X    0.000550   0.275831  -1.268545  -0.094781  -0.142736
   67  H  4  Y    1.104764   2.969458   0.578576  -1.582234   0.380211
   68  H  4  Z    1.835915   0.127582   0.056694  -1.208674   0.085229
   69  H  5  S   -0.178460   0.088315   0.016958   0.111015   0.025209
   70  H  5  S    9.093193  -2.491745  -0.785373   4.633707  -0.860445
   71  H  5  X    0.000246  -0.002842   0.007852   0.000333   0.013036
   72  H  5  Y   -0.006894  -0.005593  -0.001048   0.022550   0.002265
   73  H  5  Z    0.007214  -0.003837  -0.001948   0.003076  -0.004586
   74  H  5  S    1.541753  -0.517698  -0.208807   0.808550  -0.173057
   75  H  5  X   -0.022123   0.156237  -0.421376  -0.002856  -1.111167
   76  H  5  Y   -2.107529   1.460509   0.367005  -2.532654   0.293524
   77  H  5  Z    1.133509   0.981321   0.014169   1.420946   0.000852

                     36         37         38         39         40
                    0.4874     0.4931     0.5051     0.5566     0.5628
                     A          A          A          A          A   
    1  C  1  S    0.009369   0.104310  -0.025142   0.077953   0.013605
    2  C  1  S   -0.103758  -0.005342  -0.028262   0.023455  -0.000065
    3  C  1  S   -1.463047  -8.296414   4.306093  -8.337652  -1.301686
    4  C  1  X    0.027274  -0.000262  -0.001160  -0.000799  -0.071978
    5  C  1  Y    0.168061   0.007419  -0.109420  -0.061025  -0.006160
    6  C  1  Z   -0.244124   0.323835  -0.087877  -0.141338  -0.027747
    7  C  1  X    0.233593   0.004035   0.004640   0.160341  -1.358059
    8  C  1  Y   -0.272865  -0.891522  -7.077168  -0.137806  -0.161756
    9  C  1  Z   -2.679290  -2.638800   1.403404  -1.574842  -0.742715
   10  C  1 XX   -0.010886   0.008511  -0.006225   0.027052   0.003260
   11  C  1 YY    0.012448   0.031724  -0.008786  -0.008102  -0.000371
   12  C  1 ZZ   -0.001562  -0.040235   0.015011  -0.018950  -0.002890
   13  C  1 XY    0.002357   0.000975   0.000370  -0.000165  -0.002744
   14  C  1 XZ    0.006914   0.002177   0.001383  -0.009029   0.054969
   15  C  1 YZ    0.053829  -0.002188   0.013465  -0.027803  -0.003005
   16  C  1  S    4.661369  -4.986326  -4.833425 -14.520892  -2.702120
   17  C  1  X   -0.001362  -0.023851  -0.016118   0.025804  -0.224350
   18  C  1  Y   -0.089808  -0.561849  -1.876473   0.904340   0.180608
   19  C  1  Z    0.385030  -0.188271  -0.986418  -4.796439  -0.897132
   20  C  1 XX   -0.319727   0.297654   0.563816  -0.046497   0.031396
   21  C  1 YY    0.426354   2.650516  -0.666847  -1.812072  -0.111332
   22  C  1 ZZ   -0.106627  -2.948170   0.103031   1.858569   0.079936
   23  C  1 XY    0.086129   0.071120   0.075263   0.154984  -1.605837
   24  C  1 XZ   -0.334942  -0.107337  -0.097946   0.302937  -2.143721
   25  C  1 YZ    0.735969   0.388292   0.271689   0.198255   0.074035
   26  C  2  S   -0.002440  -0.087659  -0.031202  -0.050679  -0.011173
   27  C  2  S    0.092999  -0.081065  -0.009592   0.133507   0.018315
   28  C  2  S    1.844219  10.052414   2.793130   2.880075   0.923851
   29  C  2  X    0.043541   0.013485   0.001478  -0.054986   0.313367
   30  C  2  Y    0.070050  -0.019637  -0.017357   0.002695  -0.002113
   31  C  2  Z   -0.197880   0.174892  -0.001922  -0.079693  -0.020334
   32  C  2  X    0.326603   0.079865   0.056744  -0.208850   1.411074
   33  C  2  Y   -0.622964   1.074345   3.273147   0.602613  -0.002930
   34  C  2  Z   -2.938363  -3.059494   2.544967  -1.441300  -0.679314
   35  C  2 XX    0.012848  -0.049448   0.002940   0.010797  -0.000051
   36  C  2 YY   -0.013793   0.004333   0.006781  -0.027315  -0.003276
   37  C  2 ZZ    0.000946   0.045115  -0.009721   0.016517   0.003326
   38  C  2 XY    0.001314  -0.000130  -0.000459   0.004459  -0.027124
   39  C  2 XZ   -0.001690  -0.000416  -0.001083  -0.003096   0.032932
   40  C  2 YZ   -0.030961   0.006608   0.009730  -0.014074  -0.001398
   41  C  2  S   -4.513853   5.222112   5.829935  15.488016   2.873808
   42  C  2  X    0.095794   0.027759  -0.000240  -0.041930   0.386203
   43  C  2  Y   -0.261110   0.448494   0.960634  -1.166361  -0.230951
   44  C  2  Z    0.389227  -0.704804  -0.716783  -3.761062  -0.761375
   45  C  2 XX    0.243078  -0.330821  -0.026177  -0.371419  -0.076705
   46  C  2 YY    0.305198  -0.528363   1.475978  -0.933762  -0.150051
   47  C  2 ZZ   -0.548276   0.859184  -1.449800   1.305181   0.226756
   48  C  2 XY    0.204632   0.051252   0.057022   0.001657  -0.055937
   49  C  2 XZ    0.190500   0.007721   0.081379   0.225298  -1.883799
   50  C  2 YZ   -0.938036   0.223376  -0.345371   1.036336   0.127326
   51  H  3  S   -0.177404  -0.029184   0.045528  -0.152824  -0.016413
   52  H  3  S    2.637647  -3.820867  -7.354669  -2.994425  -0.220326
   53  H  3  X    0.004960   0.002073   0.001348  -0.000973   0.001609
[...]
 II,JST,KST,LST =  2  1  1  1 NREC =         1 INTLOC =    1
 II,JST,KST,LST =  3  1  1  1 NREC =         1 INTLOC =    1
 II,JST,KST,LST =  4  1  1  1 NREC =         1 INTLOC =    1
 II,JST,KST,LST =  5  1  1  1 NREC =         1 INTLOC =    1
 II,JST,KST,LST =  6  1  1  1 NREC =         1 INTLOC =    1
 II,JST,KST,LST =  7  1  1  1 NREC =         1 INTLOC =    4
 II,JST,KST,LST =  8  1  1  1 NREC =         1 INTLOC =  250
 II,JST,KST,LST =  9  1  1  1 NREC =         1 INTLOC =  250
 II,JST,KST,LST = 10  1  1  1 NREC =         1 INTLOC =  250
 II,JST,KST,LST = 11  1  1  1 NREC =         1 INTLOC =  399
 II,JST,KST,LST = 12  1  1  1 NREC =         1 INTLOC =  690
 II,JST,KST,LST = 13  1  1  1 NREC =         1 INTLOC =  690
 II,JST,KST,LST = 14  1  1  1 NREC =         1 INTLOC =  690
 II,JST,KST,LST = 15  1  1  1 NREC =         1 INTLOC =  690
 II,JST,KST,LST = 16  1  1  1 NREC =         1 INTLOC =  690
 II,JST,KST,LST = 17  1  1  1 NREC =         1 INTLOC = 1107
 II,JST,KST,LST = 18  1  1  1 NREC =         1 INTLOC =10393
 II,JST,KST,LST = 19  1  1  1 NREC =         1 INTLOC =10393
 II,JST,KST,LST = 20  1  1  1 NREC =         1 INTLOC =10393
 II,JST,KST,LST = 21  1  1  1 NREC =         3 INTLOC = 4084
 II,JST,KST,LST = 22  1  1  1 NREC =         3 INTLOC = 4084
 II,JST,KST,LST = 23  1  1  1 NREC =         3 INTLOC = 4084
 II,JST,KST,LST = 24  1  1  1 NREC =         4 INTLOC =  889
 II,JST,KST,LST = 25  1  1  1 NREC =         4 INTLOC =13663
 II,JST,KST,LST = 26  1  1  1 NREC =         6 INTLOC = 5014
 II,JST,KST,LST = 27  1  1  1 NREC =         7 INTLOC = 6066
 II,JST,KST,LST = 28  1  1  1 NREC =         7 INTLOC = 6066
 II,JST,KST,LST = 29  1  1  1 NREC =         8 INTLOC =12882
 II,JST,KST,LST = 30  1  1  1 NREC =         9 INTLOC = 2757
 II,JST,KST,LST = 31  1  1  1 NREC =        10 INTLOC = 8944
 II,JST,KST,LST = 32  1  1  1 NREC =        13 INTLOC = 1651
 II,JST,KST,LST = 33  1  1  1 NREC =        13 INTLOC =13434
 II,JST,KST,LST = 34  1  1  1 NREC =        16 INTLOC =13592
 II,JST,KST,LST = 35  1  1  1 NREC =        17 INTLOC =10422
 II,JST,KST,LST = 36  1  1  1 NREC =        18 INTLOC =  973
 II,JST,KST,LST = 37  1  1  1 NREC =        19 INTLOC =   67
 II,JST,KST,LST = 38  1  1  1 NREC =        23 INTLOC =  280
 II,JST,KST,LST = 39  1  1  1 NREC =        25 INTLOC =11453
 II,JST,KST,LST = 40  1  1  1 NREC =        32 INTLOC = 4639
 II,JST,KST,LST = 41  1  1  1 NREC =        34 INTLOC = 3407
 II,JST,KST,LST = 42  1  1  1 NREC =        41 INTLOC = 1103
 II,JST,KST,LST = 43  1  1  1 NREC =        60 INTLOC = 7455
 II,JST,KST,LST = 44  1  1  1 NREC =        60 INTLOC = 7455
 II,JST,KST,LST = 45  1  1  1 NREC =        62 INTLOC = 9138
 II,JST,KST,LST = 46  1  1  1 NREC =        65 INTLOC = 1038
 II,JST,KST,LST = 47  1  1  1 NREC =        72 INTLOC = 1697
 II,JST,KST,LST = 48  1  1  1 NREC =        72 INTLOC = 1697
 II,JST,KST,LST = 49  1  1  1 NREC =        91 INTLOC = 9816
 II,JST,KST,LST = 50  1  1  1 NREC =        91 INTLOC = 9816
 II,JST,KST,LST = 51  1  1  1 NREC =       102 INTLOC = 8181
 II,JST,KST,LST = 52  1  1  1 NREC =       122 INTLOC = 3691
 II,JST,KST,LST = 53  1  1  1 NREC =       128 INTLOC = 4167
 II,JST,KST,LST = 54  1  1  1 NREC =       133 INTLOC =12906
 II,JST,KST,LST = 55  1  1  1 NREC =       141 INTLOC = 1972
 II,JST,KST,LST = 56  1  1  1 NREC =       151 INTLOC =  300
 II,JST,KST,LST = 57  1  1  1 NREC =       157 INTLOC =  376
 II,JST,KST,LST = 58  1  1  1 NREC =       165 INTLOC = 2654
 II,JST,KST,LST = 59  1  1  1 NREC =       171 INTLOC = 9591
 II,JST,KST,LST = 60  1  1  1 NREC =       191 INTLOC = 8689
 II,JST,KST,LST = 61  1  1  1 NREC =       191 INTLOC = 8689
 II,JST,KST,LST = 62  1  1  1 NREC =       215 INTLOC =10357
 II,JST,KST,LST = 63  1  1  1 NREC =       220 INTLOC = 7827
 II,JST,KST,LST = 64  1  1  1 NREC =       225 INTLOC = 6263
 II,JST,KST,LST = 65  1  1  1 NREC =       253 INTLOC = 2262
 II,JST,KST,LST = 66  1  1  1 NREC =       259 INTLOC = 4105
 SCHWARZ INEQUALITY TEST SKIPPED       33785 INTEGRAL BLOCKS.
 TOTAL NUMBER OF NONZERO TWO-ELECTRON INTEGRALS =            67116869
       4483 INTEGRAL RECORDS WERE STORED ON DISK FILE  8.
  ...... END OF TWO-ELECTRON INTEGRALS .....
 CPU     0: STEP CPU TIME=     0.26 TOTAL CPU TIME=         23.5 (      0.4 MIN)
 TOTAL WALL CLOCK TIME=         24.0 SECONDS, CPU UTILIZATION IS    97.89%

          ---------------------------------------------
          MONOMER ELECTROSTATIC INTERACTION (OWN BASIS)
          ---------------------------------------------

          -------------
          GUESS OPTIONS
          -------------
          GUESS =MOSAVED           NORB  =       0          NORDER=       0
          MIX   =       F          PRTMO =       F          PUNMO =       F
          TOLZ  = 1.0E-08          TOLE  = 1.0E-05
          SYMDEN=       F          PURIFY=       F

 INITIAL GUESS ORBITALS GENERATED BY MOSAVED  ROUTINE.

 STATISTICS FOR GENERATION OF SYMMETRY ORBITAL -Q- MATRIX
 NUMBER OF CARTESIAN ATOMIC ORBITALS=        154
 NUMBER OF SPHERICAL CONTAMINANTS DROPPED=     8
 NUMBER OF LINEARLY DEPENDENT MOS DROPPED=     0
 TOTAL NUMBER OF MOS IN VARIATION SPACE=     146
 ...... END OF INITIAL ORBITAL SELECTION ......
 CPU     0: STEP CPU TIME=     0.01 TOTAL CPU TIME=         23.5 (      0.4 MIN)
 TOTAL WALL CLOCK TIME=         24.0 SECONDS, CPU UTILIZATION IS    97.89%

          ---------------------------
                  UHF SCF CALCULATION
          ---------------------------

 FINAL UHF ENERGY IS     -155.3035477117 AFTER   1 ITERATIONS
 ...... END OF UHF CALCULATION ......
 CPU     0: STEP CPU TIME=     0.08 TOTAL CPU TIME=         23.6 (      0.4 MIN)
 TOTAL WALL CLOCK TIME=         24.1 SECONDS, CPU UTILIZATION IS    97.87%

          -------------
          GUESS OPTIONS
          -------------
          GUESS =MOSAVED           NORB  =       0          NORDER=       0
          MIX   =       F          PRTMO =       F          PUNMO =       F
          TOLZ  = 1.0E-08          TOLE  = 1.0E-05
          SYMDEN=       F          PURIFY=       F

 INITIAL GUESS ORBITALS GENERATED BY MOSAVED  ROUTINE.

 STATISTICS FOR GENERATION OF SYMMETRY ORBITAL -Q- MATRIX
 NUMBER OF CARTESIAN ATOMIC ORBITALS=        154
 NUMBER OF SPHERICAL CONTAMINANTS DROPPED=     8
 NUMBER OF LINEARLY DEPENDENT MOS DROPPED=     0
 TOTAL NUMBER OF MOS IN VARIATION SPACE=     146
 ...... END OF INITIAL ORBITAL SELECTION ......
 CPU     0: STEP CPU TIME=     0.01 TOTAL CPU TIME=         23.6 (      0.4 MIN)
 TOTAL WALL CLOCK TIME=         24.1 SECONDS, CPU UTILIZATION IS    97.87%

          ---------------------------
                  UHF SCF CALCULATION
          ---------------------------

 DIRECT SCF CALCULATION, SCHWRZ=T   FDIFF=T
 SCHWARZ INEQUALITY OVERHEAD:     11935 INTEGRALS, T=        0.00

 FINAL UHF ENERGY IS     -332.1220382634 AFTER   1 ITERATIONS
 ...... END OF UHF CALCULATION ......
 CPU     0: STEP CPU TIME=     0.28 TOTAL CPU TIME=         23.9 (      0.4 MIN)
 TOTAL WALL CLOCK TIME=         24.4 SECONDS, CPU UTILIZATION IS    97.86%

 XEDA STEP ENERGY SUMMATION
 ETOT =       -155.30354771     ENUC =        103.38138179
 EEXCH=        -22.94779330

          --------------------------------------------------
          MONOMER EXCHANGE-REPULSION INTERACTION (OWN BASIS)
          --------------------------------------------------

          -------------
          GUESS OPTIONS
          -------------
          GUESS =MOSAVED           NORB  =       0          NORDER=       0
          MIX   =       F          PRTMO =       F          PUNMO =       F
          TOLZ  = 1.0E-08          TOLE  = 1.0E-05
          SYMDEN=       F          PURIFY=       F

 INITIAL GUESS ORBITALS GENERATED BY MOSAVED  ROUTINE.

 STATISTICS FOR GENERATION OF SYMMETRY ORBITAL -Q- MATRIX
 NUMBER OF CARTESIAN ATOMIC ORBITALS=        154
 NUMBER OF SPHERICAL CONTAMINANTS DROPPED=     8
 NUMBER OF LINEARLY DEPENDENT MOS DROPPED=     0
 TOTAL NUMBER OF MOS IN VARIATION SPACE=     146
 ...... END OF INITIAL ORBITAL SELECTION ......
 CPU     0: STEP CPU TIME=     0.01 TOTAL CPU TIME=         23.9 (      0.4 MIN)
 TOTAL WALL CLOCK TIME=         24.4 SECONDS, CPU UTILIZATION IS    97.86%

          ---------------------------
                  UHF SCF CALCULATION
          ---------------------------

 FINAL UHF ENERGY IS     -154.6263530603 AFTER   1 ITERATIONS
 ...... END OF UHF CALCULATION ......
 CPU     0: STEP CPU TIME=     0.07 TOTAL CPU TIME=         24.0 (      0.4 MIN)
 TOTAL WALL CLOCK TIME=         24.5 SECONDS, CPU UTILIZATION IS    97.83%

 XEDA STEP ENERGY SUMMATION
 ETOT =       -154.62635306     ENUC =        103.38138179

          ---------------------------------------------
          MONOMER ELECTROSTATIC INTERACTION (ALL BASIS)
          ---------------------------------------------

          -------------
          GUESS OPTIONS
          -------------
          GUESS =MOSAVED           NORB  =       0          NORDER=       0
          MIX   =       F          PRTMO =       F          PUNMO =       F
          TOLZ  = 1.0E-08          TOLE  = 1.0E-05
          SYMDEN=       F          PURIFY=       F

 INITIAL GUESS ORBITALS GENERATED BY MOSAVED  ROUTINE.

 STATISTICS FOR GENERATION OF SYMMETRY ORBITAL -Q- MATRIX
 NUMBER OF CARTESIAN ATOMIC ORBITALS=        154
 NUMBER OF SPHERICAL CONTAMINANTS DROPPED=     8
 NUMBER OF LINEARLY DEPENDENT MOS DROPPED=     0
 TOTAL NUMBER OF MOS IN VARIATION SPACE=     146
 ...... END OF INITIAL ORBITAL SELECTION ......
 CPU     0: STEP CPU TIME=     0.01 TOTAL CPU TIME=         24.0 (      0.4 MIN)
 TOTAL WALL CLOCK TIME=         24.5 SECONDS, CPU UTILIZATION IS    97.83%

          ---------------------------
                  UHF SCF CALCULATION
          ---------------------------

 FINAL UHF ENERGY IS     -155.3101578060 AFTER   1 ITERATIONS
 ...... END OF UHF CALCULATION ......
 CPU     0: STEP CPU TIME=     0.08 TOTAL CPU TIME=         24.1 (      0.4 MIN)
 TOTAL WALL CLOCK TIME=         24.6 SECONDS, CPU UTILIZATION IS    97.81%

          -------------
          GUESS OPTIONS
          -------------
          GUESS =MOSAVED           NORB  =       0          NORDER=       0
          MIX   =       F          PRTMO =       F          PUNMO =       F
          TOLZ  = 1.0E-08          TOLE  = 1.0E-05
          SYMDEN=       F          PURIFY=       F

 INITIAL GUESS ORBITALS GENERATED BY MOSAVED  ROUTINE.

 STATISTICS FOR GENERATION OF SYMMETRY ORBITAL -Q- MATRIX
 NUMBER OF CARTESIAN ATOMIC ORBITALS=        154
 NUMBER OF SPHERICAL CONTAMINANTS DROPPED=     8
 NUMBER OF LINEARLY DEPENDENT MOS DROPPED=     0
 TOTAL NUMBER OF MOS IN VARIATION SPACE=     146
 ...... END OF INITIAL ORBITAL SELECTION ......
 CPU     0: STEP CPU TIME=     0.01 TOTAL CPU TIME=         24.1 (      0.4 MIN)
 TOTAL WALL CLOCK TIME=         24.6 SECONDS, CPU UTILIZATION IS    97.81%

          ---------------------------
                  UHF SCF CALCULATION
          ---------------------------

 DIRECT SCF CALCULATION, SCHWRZ=T   FDIFF=T
 SCHWARZ INEQUALITY OVERHEAD:     11935 INTEGRALS, T=        0.00

 FINAL UHF ENERGY IS     -332.1446647724 AFTER   1 ITERATIONS
 ...... END OF UHF CALCULATION ......
 CPU     0: STEP CPU TIME=     0.28 TOTAL CPU TIME=         24.4 (      0.4 MIN)
 TOTAL WALL CLOCK TIME=         24.9 SECONDS, CPU UTILIZATION IS    97.80%

 XEDA STEP ENERGY SUMMATION
 ETOT =       -155.31015781     ENUC =        103.38138179
 EEXCH=        -22.94844531

          --------------------------------------------------
          MONOMER EXCHANGE-REPULSION INTERACTION (ALL BASIS)
          --------------------------------------------------

          -------------
          GUESS OPTIONS
          -------------
          GUESS =MOSAVED           NORB  =       0          NORDER=       0
          MIX   =       F          PRTMO =       F          PUNMO =       F
          TOLZ  = 1.0E-08          TOLE  = 1.0E-05
          SYMDEN=       F          PURIFY=       F

 INITIAL GUESS ORBITALS GENERATED BY MOSAVED  ROUTINE.

 STATISTICS FOR GENERATION OF SYMMETRY ORBITAL -Q- MATRIX
 NUMBER OF CARTESIAN ATOMIC ORBITALS=        154
 NUMBER OF SPHERICAL CONTAMINANTS DROPPED=     8
 NUMBER OF LINEARLY DEPENDENT MOS DROPPED=     0
 TOTAL NUMBER OF MOS IN VARIATION SPACE=     146
 ...... END OF INITIAL ORBITAL SELECTION ......
 CPU     0: STEP CPU TIME=     0.01 TOTAL CPU TIME=         24.4 (      0.4 MIN)
 TOTAL WALL CLOCK TIME=         24.9 SECONDS, CPU UTILIZATION IS    97.80%

          ---------------------------
                  UHF SCF CALCULATION
          ---------------------------

 FINAL UHF ENERGY IS     -154.6311775943 AFTER   1 ITERATIONS
 ...... END OF UHF CALCULATION ......
 CPU     0: STEP CPU TIME=     0.07 TOTAL CPU TIME=         24.4 (      0.4 MIN)
 TOTAL WALL CLOCK TIME=         25.0 SECONDS, CPU UTILIZATION IS    97.77%

 XEDA STEP ENERGY SUMMATION
 ETOT =       -154.63117759     ENUC =        103.38138179

          --------------------------------
          RESULTS OF INTERACTION ANALYSIS
          --------------------------------

     ENERGY TERMS
     T   ELECTRON KINETIC AND COULOMB POTENTIAL
     X   E-E EXCHANGE COMBINE WITH DIAGNANAL VALUE
     N   NUCLEUS-NUCLEUS REPULSION ENERGY

 --------------
 MONOMER ENERGY
 --------------

 MONOMER    1

                   OWN BASIS           ALL BASIS

 T              -93.94059044        -93.94088571
 X              -11.31319657        -11.31346281
 N               27.87627434         27.87627434
 EC              -0.47435043         -0.47484775
 E              -77.85186311        -77.85292193

 MONOMER    2

                   OWN BASIS           ALL BASIS

 T              -93.94057136        -93.94086727
 X              -11.31319937        -11.31346064
 N               27.87625686         27.87625686
 EC              -0.47434800         -0.47486687
 E              -77.85186187        -77.85293793

 ------------------------------------------------------------
 SUPER MOLECULE ENERGY  USING NON-ANTISYMMETRIC WAVEFUNCTION
 (ELECTROSTATIC ENERGY: T N CHANGE)
 ------------------------------------------------------------

              FROM OWN BASIS      FROM ALL BASIS
 T             -235.73713620       -235.74309428
 X              -22.62639595        -22.62692345
 N              103.38138179        103.38138179
 E             -154.98215036       -154.98863595

 ----------------------------------------------------------------------
 SUPER MOLECULE ENERGY  USING ANTISYMMETRIC NONORTHONORMAL WAVEFUNCTION
 (EXCHANGE ENERGY: ONLY X CHANGES)
 ----------------------------------------------------------------------

              FROM OWN BASIS      FROM ALL BASIS
 T             -235.73713620       -235.74309428
 X              -22.94779330        -22.94844531
 N              103.38138179        103.38138179
 E             -155.30354771       -155.31015781

 -----------------------------------------------------------------------
 SUPER MOLECULE ENERGY  USING ANTISYMMETRIC AND ORTHONORMAL WAVEFUNCTION
 (REPULSION ENERGY: T X CHANGE)
 -----------------------------------------------------------------------

              FROM OWN BASIS      FROM ALL BASIS
 T+X           -258.00773485       -258.01255938
 N              103.38138179        103.38138179
 E             -154.62635306       -154.63117759

 ---------------------------------------------
 SUPER MOLECULE ENERGY  USING SCF WAVEFUNCTION
 (POLARIZATION ENERGY: T X CHANGE)
 ---------------------------------------------
 T+X           -258.29114802
 N              103.38138179
 EC              -0.98554137
 E             -155.89530760


                   *******************************
                   SUMMARY OF INTERACTION ENERGIES
                     XEDA IN XIAMEN UNIVERSITY    
                    - ZHEN TANG AND PEIFENG SU -  
                   *******************************


 -------------
 OWN BASIS SET                                       HARTREE          KCAL/MOL
 -------------
 ELECTROSTATIC ENERGY                  ES=         -0.227124           -142.52
 EXCHANGE ENERGY                       EX=         -0.321397           -201.68
 REPULSION ENERGY                     REP=          0.677195            424.95
 POLARIZATION ENERGY                  POL=         -0.283413           -177.84
 ELECTRON CORRELATION                CORR=         -0.036843            -23.12
 TOTAL INTERACTION ENERGY               E=         -0.191583           -120.22
  

 -------------
 ALL BASIS SET                                       HARTREE          KCAL/MOL
 -------------
 ELECTROSTATIC ENERGY                  ES=         -0.232491           -145.89
 EXCHANGE ENERGY                       EX=         -0.321522           -201.76
 REPULSION ENERGY                     REP=          0.678980            426.07
 POLARIZATION ENERGY                  POL=         -0.278589           -174.82
 ELECTRON CORRELATION                CORR=         -0.035827            -22.48
 TOTAL INTERACTION ENERGY               E=         -0.189448           -118.88
  

                     ***************************
                     END OF INTERACTION ANALYSIS
                     ***************************

              1301896  WORDS OF DYNAMIC MEMORY USED
 EXECUTION OF GAMESS TERMINATED NORMALLY 14:31:21 25-DEC-2023    
 DDI: 263640 bytes (0.3 MB / 0 MWords) used by master data server.

 ----------------------------------------
 CPU timing information for all processes
 ========================================
 0: 23.768 + 0.675 = 24.443
 1: 23.582 + 0.536 = 24.118
 2: 23.586 + 0.579 = 24.166
 3: 23.534 + 0.534 = 24.69
 4: 23.557 + 0.651 = 24.209
 5: 23.538 + 0.563 = 24.102
 6: 23.571 + 0.589 = 24.160
 7: 23.586 + 0.496 = 24.83
 8: 23.588 + 0.637 = 24.226
 9: 23.482 + 0.552 = 24.34
 10: 23.519 + 0.577 = 24.96
 11: 23.484 + 0.525 = 24.09
 12: 23.543 + 0.602 = 24.145
 13: 23.526 + 0.535 = 24.62
 14: 23.568 + 0.537 = 24.106
 15: 23.504 + 0.544 = 24.48
 ----------------------------------------
 ddikick.x: exited gracefully.
----- accounting info -----
Files used on the master node w012 were:
-rw-r--r-- 1 xacs0647 10000  2703863 Dec 25 14:31 /job_dir/11_1685734/11.dat
-rw-r--r-- 1 xacs0647 10000      243 Dec 25 14:31 /job_dir/11_1685734/11.err
-rw-r--r-- 1 xacs0647 10000      837 Dec 25 14:30 /job_dir/11_1685734/11.F05
-rw-r--r-- 1 xacs0647 10000 49864432 Dec 25 14:31 /job_dir/11_1685734/11.F08
-rw-r--r-- 1 xacs0647 10000 49864432 Dec 25 14:31 /job_dir/11_1685734/11.F08.001
-rw-r--r-- 1 xacs0647 10000 48964352 Dec 25 14:31 /job_dir/11_1685734/11.F08.002
-rw-r--r-- 1 xacs0647 10000 48964352 Dec 25 14:31 /job_dir/11_1685734/11.F08.003
-rw-r--r-- 1 xacs0647 10000 47344208 Dec 25 14:31 /job_dir/11_1685734/11.F08.004
-rw-r--r-- 1 xacs0647 10000 51844608 Dec 25 14:31 /job_dir/11_1685734/11.F08.005
-rw-r--r-- 1 xacs0647 10000 52024624 Dec 25 14:31 /job_dir/11_1685734/11.F08.006
-rw-r--r-- 1 xacs0647 10000 46444128 Dec 25 14:31 /job_dir/11_1685734/11.F08.007
-rw-r--r-- 1 xacs0647 10000 55624944 Dec 25 14:31 /job_dir/11_1685734/11.F08.008
-rw-r--r-- 1 xacs0647 10000 53644768 Dec 25 14:31 /job_dir/11_1685734/11.F08.009
-rw-r--r-- 1 xacs0647 10000 52384656 Dec 25 14:31 /job_dir/11_1685734/11.F08.010
-rw-r--r-- 1 xacs0647 10000 49144368 Dec 25 14:31 /job_dir/11_1685734/11.F08.011
-rw-r--r-- 1 xacs0647 10000 53644768 Dec 25 14:31 /job_dir/11_1685734/11.F08.012
-rw-r--r-- 1 xacs0647 10000 52564672 Dec 25 14:31 /job_dir/11_1685734/11.F08.013
-rw-r--r-- 1 xacs0647 10000 46264112 Dec 25 14:31 /job_dir/11_1685734/11.F08.014
-rw-r--r-- 1 xacs0647 10000 48424304 Dec 25 14:31 /job_dir/11_1685734/11.F08.015
-rw-r--r-- 1 xacs0647 10000  5758720 Dec 25 14:31 /job_dir/11_1685734/11.F10
-rw-r--r-- 1 xacs0647 10000      837 Dec 25 14:30 /job_dir/11_1685734/11.inp
-rw-r--r-- 1 xacs0647 10000  2403388 Dec 25 14:31 /job_dir/11_1685734/11.out
Mon Dec 25 14:31:24 CST 2023
0.097u 0.049s 0:28.16 0.4%	0+0k 0+40io 0pf+0w
