----- GAMESS execution script 'rungms' -----
This job is running on host w013
under operating system Linux at Mon Dec 25 14:30:56 CST 2023
Available scratch disk space (Kbyte units) at beginning of the job is
Filesystem              1K-blocks    Used Available Use% Mounted on
/dev/mapper/system-root 932514944 2661844 929853100   1% /
GAMESS temporary binary files will be written to /job_dir/12_1685735
GAMESS supplementary output files will be written to /job_dir/12_1685735
Copying input file ./12.inp to your run's scratch directory...
 
Assuming a single but multicore node.
 

 Distributed Data Interface kickoff program.
 Initiating 16 compute processes on 1 nodes to run the following command:
 /share/apps/xeda-apps/xeda-td/gamess.00.x 12 

          *******************************************************
          *                                                     *
          *          GAMESS VERSION = 30 SEP 2020 (R2)          *
          *                                                     *
          *              doi.org/10.1063/5.0005188              *
          *                                                     *
          **************** 64 BIT LINUX VERSION *****************

  GAMESS HAS BEEN MADE POSSIBLE WITH IMPORTANT CONTRIBUTIONS FROM
  THE FOLLOWING INDIVIDUALS (IN ALPHABETICAL ORDER):

     IVANA ADAMOVIC, CHRISTINE AIKENS, TOMOKO AKAMA,
     YURI ALEXEEV, YURIKO AOKI, POOJA ARORA, TOSHIO ASADA,
     ANDREY ASADCHEV, KIM K. BALDRIDGE, PRADIPTA BANDYOPADHYAY,
     MARIA BARYSZ, ROB BELL, JONATHAN BENTZ, COLLEEN BERTONI,
     JERRY A. BOATZ, BRETT BODE, KURT BRORSEN, KURT R. BRORSEN,
     LAIMUTIS BYTAUTAS, CALEB CARLIN, LAURA CARRINGTON,
     GALINA CHABAN, BENOIT CHAMPAGNE, WEI CHEN, MAHITO CHIBA,
     DAN CHIPMAN, CHEOL HO CHOI, TANNER CULPITT,
     DIPAYAN DATTA, PAUL DAY, ALBERT DEFUSCO,
     NUWAN DESILVA, J. EMILIANO DEUSTUA,
     TIM DUDLEY, MICHEL DUPUIS, STEVEN T. ELBERT,
     DMITRI FEDOROV, ALEX FINDLATER, GRAHAM FLETCHER,
     MARK FREITAG, CHRISTIAN FRIEDL, DAVID GARMER,
     IGOR S. GERASIMOV, KURT GLAESEMANN, MARK S. GORDON,
     JEFFREY GOUR, FENG LONG GU, EMILIE B. GUIDEZ,
     ANASTASIA GUNINA, SHARON HAMMES-SCHIFFER, MASATAKE HARUTA,
     KIMIHIKO HIRAO, YASUHIRO IKABATA, TZVETELIN IORDANOV,
     STEPHAN IRLE, KAZUYA ISHIMURA, JOE IVANIC, FRANK JENSEN,
     JAN H. JENSEN, VISVALDAS KAIRYS, MUNEAKI KAMIYA,
     MICHIO KATOUDA, NAOAKI KAWAKAMI, DAN KEMP, BERNARD KIRTMAN,
     KAZUO KITAURA, MARIUSZ KLOBUKOWSKI, MASATO KOBAYASHI,
     PRAKASHAN KORAMBATH, JACEK KORCHOWIEC, SHIRO KOSEKI,
     KAROL KOWALSKI, JIMMY KROMANN, STANISLAW KUCHARSKI,
     HENRY KURTZ, SAROM SOK LEANG, HUI LI, SHUHUA LI, WEI LI,
     JESSE LUTZ, ALEKSANDR O. LYKHIN, MARCIN MAKOWSKI,
     JOANI MATO, NIKITA MATSUNAGA, BENEDETTA MENNUCCI,
     GRANT MERRILL, NORIYUKI MINEZAWA, VLADIMIR MIRONOV,
     EISAKU MIYOSHI, JOHN A. MONTGOMERY JR., HIROTOSHI MORI,
     JONATHAN MULLIN, MONIKA MUSIAL, SHIGERU NAGASE,
     TAKESHI NAGATA, HIROMI NAKAI, TAKAHITO NAKAJIMA,
     YUYA NAKAJIMA, HARUYUKI NAKANO, HIROYA NAKATA, SEAN NEDD,
     HEATHER NETZLOFF, KIET A. NGUYEN, YOSHIO NISHIMOTO,
     BOSILJKA NJEGIC, RYAN OLSON, MIKE PAK, ROBERTO PEVERATI,
     BUU PHAM, PIOTR PIECUCH, ANNA POMOGAEVA, DAVID POOLE,
     SPENCER PRUITT, OLIVIER QUINET, LUKE ROSKOP,
     KLAUS RUEDENBERG, ANDREW SAND, TOSAPORN SATTASATHUCHANA,
     NOZOMI SAWADA, MICHAEL W. SCHMIDT, PATRICK E. SCHNEIDER,
     JUNJI SEINO, PRACHI SHARMA, JUN SHEN, JIM SHOEMAKER,
     YINAN SHU, DEJUN SI, JONATHAN SKONE, LYUDMILA SLIPCHENKO,
     TONY SMITH, JIE SONG, MARK SPACKMAN, CASPER STEINMANN,
     WALT STEVENS, PEIFENG SU, SHUJUN SU, CHET SWALINA,
     TETSUYA TAKETSUGU, ZHEN TAO, NANDUN THELLAMUREGE
     SEIKEN TOKURA, JACOPO TOMASI, TSUGUKI TOUMA, TAKAO TSUNEDA,
     HIROAKI UMEDA, JORGE LUIS GALVEZ VALLEJO, YALI WANG,
     SIMON WEBB, AARON WEST, THERESA L. WINDUS, MARTA WLOCH,
     PENG XU, KIYOSHI YAGI, SUSUMU YANAGISAWA, YANG YANG,
     SOOHAENG YOO, TAKESHI YOSHIKAWA, FEDERICO ZAHARIEV,
     TOBY ZENG

  WHO ARE SUPPORTED BY THEIR INSTITUTION/UNIVERSITY/COMPANY/GROUP
  (IN ALPHABETICAL ORDER):

     EP ANALYTICS, FACULTES UNIVERSITAIRES NOTRE-DAME DE LA PAIX,
     INSTITUTE FOR MOLECULAR SCIENCE, IOWA STATE UNIVERSITY,
     JACKSON STATE UNIVERSITY, JOHANNES KEPLER UNIVERSITY LINZ,
     KYUSHU UNIVERSITY, MICHIGAN STATE UNIVERSITY,
     MIE UNIVERSITY, MOSCOW STATE UNIVERSITY,
     N. COPERNICUS UNIVERSITY, NAGOYA UNIVERSITY,
     NANJING UNIVERSITY, NAT. INST. OF ADVANCED INDUSTRIAL
     SCIENCE AND TECHNOLOGY, NATIONAL INST. OF STANDARDS AND
     TECHNOLOGY, NESMEYANOV INSTITUTE OF ORGANOELEMENT COMPOUNDS
     OF RUSSIAN ACADEMY OF SCIENCES, OSAKA PREFECTURE UNIVERSITY,
     PENNSYLVANIA STATE UNIVERSITY, TOKYO INSTITUTE OF TECHNOLOGY,
     UNIVERSITY OF AARHUS, UNIVERSITY OF ALBERTA,
     UNIVERSITY OF CALIFORNIA AT SANTA BARBARA,
     UNIVERSITY OF COPENHAGEN, UNIVERSITY OF IOWA,
     UNIVERSITY OF MEMPHIS, UNIVERSITY OF MINNESOTA,
     UNIVERSITY OF NEBRASKA, UNIVERSITY OF NEW ENGLAND,
     UNIVERSITY OF NOTRE DAME, UNIVERSITY OF PISA,
     UNIVERSITY OF SILESIA, UNIVERSITY OF TOKYO,
     UNIVERSITY OF ZURICH, WASEDA UNIVERSITY, YALE UNIVERSITY

  GAMESS SOFTWARE MANAGEMENT TEAM FOR THIS RELEASE:
     MARK S. GORDON (TEAM LEAD),
     BRETT BODE (SENIOR ADVISOR),
     GIUSEPPE BARCA,
     COLLEEN BERTONI,
     KRISTOPHER KEIPERT (ADVISOR),
     SAROM S. LEANG (DEVELOPMENT LEAD),
     BUU PHAM,
     JORGE LUIS GALVEZ VALLEJO (WEBSITE ADMINISTRATOR),
     PENG XU


 PARALLEL VERSION RUNNING ON       16 PROCESSORS IN        1 NODES.

 EXECUTION OF GAMESS BEGUN 14:30:56 25-DEC-2023    

            ECHO OF THE FIRST FEW INPUT CARDS -
 INPUT CARD> $CONTRL SCFTYP=UHF RUNTYP=EDA dfttyp=B3LYP ispher=1 icharg=0 mult=1 $END       
 INPUT CARD> $SYSTEM  mwords=150 memddi=150 $END                                            
 INPUT CARD> $BASIS gbasis=accd $END                                                        
 INPUT CARD> $LMOEDA MATOM(1)=5 5 MCHARG(1)=0 0 MMULT(1)=2 -2 edatyp=gks $end               
 INPUT CARD> $scf DIIS=.TRUE. ETHRSH=2.0 SWDIIS=0.005 $end                                  
 INPUT CARD> $data                                                                          
 INPUT CARD> EDA calculation with XEDA 1.0                                                  
 INPUT CARD> c1                                                                             
 INPUT CARD>C   6   -0.2216289344    0.8848406866   -1.3857728706                           
 INPUT CARD>C   6   -0.2216289344    0.8848406866   -0.0296707591                           
 INPUT CARD>H   1   -0.2518791146    1.8406115477    0.5083602870                           
 INPUT CARD>H   1   -0.2343681731   -0.0462764897   -1.9597991292                           
 INPUT CARD>H   1   -0.2141374057    1.8125565258   -1.9628893684                           
 INPUT CARD>C   6   -0.2216289344   -0.3480022402    0.8141002073                           
 INPUT CARD>C   6    0.6356752569   -1.3863181899    0.6530221832                           
 INPUT CARD>H   1    1.4095809960   -1.3770727591   -0.1200455234                           
 INPUT CARD>H   1    0.5944160028   -2.2730066136    1.2900895281                           
 INPUT CARD>H   1   -0.9557954279   -0.3778489023    1.6289540546                           
 INPUT CARD> $end                                                                           
  150000000 WORDS OF MEMORY AVAILABLE

     BASIS OPTIONS
     -------------
     GBASIS=ACCD         IGAUSS=       0      POLAR=NONE    
     NDFUNC=       0     NFFUNC=       0     DIFFSP=       F
     NPFUNC=       0      DIFFS=       F     BASNAM=        


     RUN TITLE
     ---------
  EDA calculation with XEDA 1.0                                                  

 THE POINT GROUP OF THE MOLECULE IS C1      
 THE ORDER OF THE PRINCIPAL AXIS IS     0

 ATOM      ATOMIC                      COORDINATES (BOHR)
           CHARGE         X                   Y                   Z
 C           6.0    -0.4188179570        1.6721064405       -2.6187310067
 C           6.0    -0.4188179570        1.6721064405       -0.0560696045
 H           1.0    -0.4759825086        3.4782514750        0.9606616455
 H           1.0    -0.4428916274       -0.0874498852       -3.7034833452
 H           1.0    -0.4046610205        3.4252351710       -3.7093230505
 C           6.0    -0.4188179570       -0.6576288771        1.5384263183
 C           6.0     1.2012520527       -2.6197615107        1.2340329902
 H           1.0     2.6637218399       -2.6022901799       -0.2268531453
 H           1.0     1.1232833680       -4.2953596680        2.4379157077
 H           1.0    -1.8061914590       -0.7140308901        3.0782768098

          INTERNUCLEAR DISTANCES (ANGS.)
          ------------------------------

                1 C          2 C          3 H          4 H          5 H     

   1 C       0.0000000    1.3561021 *  2.1218279 *  1.0939139 *  1.0926007 *
   2 C       1.3561021 *  0.0000000    1.0972194 *  2.1430205 *  2.1443057 *
   3 H       2.1218279 *  1.0972194 *  0.0000000    3.1068415    2.4716971 *
   4 H       1.0939139 *  2.1430205 *  3.1068415    0.0000000    1.8589457 *
   5 H       1.0926007 *  2.1443057 *  2.4716971 *  1.8589457 *  0.0000000  
   6 C       2.5217738 *  1.4939381 *  2.2100729 *  2.7902900 *  3.5184857  
   7 C       3.1701449    2.5217460 *  3.3498889    3.0626006    4.2187645  
   8 H       3.0625421    2.7902089 *  3.6754368    2.8032625 *  4.0257012  
   9 H       4.2187876    3.5184792    4.2719048    4.0257902    5.2846435  
  10 H       3.3499200    2.2100728 *  2.5831754 *  3.6755336    4.2719166  

                6 C          7 C          8 H          9 H         10 H     

   1 C       2.5217738 *  3.1701449    3.0625421    4.2187876    3.3499200  
   2 C       1.4939381 *  2.5217460 *  2.7902089 *  3.5184792    2.2100728 *
   3 H       2.2100729 *  3.3498889    3.6754368    4.2719048    2.5831754 *
   4 H       2.7902900 *  3.0626006    2.8032625 *  4.0257902    3.6755336  
   5 H       3.5184857    4.2187645    4.0257012    5.2846435    4.2719166  
   6 C       0.0000000    1.3561035 *  2.1430026 *  2.1443267 *  1.0972138 *
   7 C       1.3561035 *  0.0000000    1.0939146 *  1.0925994 *  2.1218464 *
   8 H       2.1430026 *  1.0939146 *  0.0000000    1.8589439 *  3.1068398  
   9 H       2.1443267 *  1.0925994 *  1.8589439 *  0.0000000    2.4717620 *
  10 H       1.0972138 *  2.1218464 *  3.1068398    2.4717620 *  0.0000000  

  * ... LESS THAN  3.000


     ATOMIC BASIS SET
     ----------------
 THE CONTRACTED PRIMITIVE FUNCTIONS HAVE BEEN UNNORMALIZED
 THE CONTRACTED BASIS FUNCTIONS ARE NOW NORMALIZED TO UNITY

  SHELL TYPE  PRIMITIVE        EXPONENT          CONTRACTION COEFFICIENT(S)

 C         

      1   S       1          6665.0000000    0.000691583963
      1   S       2          1000.0000000    0.005325796153
      1   S       3           228.0000000    0.027060721042
      1   S       4            64.7100000    0.101656846141
      1   S       5            21.0600000    0.274574823617
      1   S       6             7.4950000    0.448294318924
      1   S       7             2.7970000    0.284902610715
      1   S       8             0.5215000    0.015194859206

      2   S       9          6665.0000000   -0.000293269653
      2   S      10          1000.0000000   -0.002318035474
      2   S      11           228.0000000   -0.011499786039
      2   S      12            64.7100000   -0.046826727010
      2   S      13            21.0600000   -0.128466168750
      2   S      14             7.4950000   -0.301266272463
      2   S      15             2.7970000   -0.255630702330
      2   S      16             0.5215000    1.093793361012

      3   S      17             0.1596000    1.000000000000

      4   P      18             9.4390000    0.056979251590
      4   P      19             2.0020000    0.313207211501
      4   P      20             0.5456000    0.760376741738

      5   P      21             0.1517000    1.000000000000

      6   D      22             0.5500000    1.000000000000

      7   S      23             0.0469000    1.000000000000

      8   P      24             0.0404100    1.000000000000

      9   D      25             0.1510000    1.000000000000

 C         

     10   S      26          6665.0000000    0.000691583963
     10   S      27          1000.0000000    0.005325796153
     10   S      28           228.0000000    0.027060721042
     10   S      29            64.7100000    0.101656846141
     10   S      30            21.0600000    0.274574823617
     10   S      31             7.4950000    0.448294318924
     10   S      32             2.7970000    0.284902610715
     10   S      33             0.5215000    0.015194859206

     11   S      34          6665.0000000   -0.000293269653
     11   S      35          1000.0000000   -0.002318035474
     11   S      36           228.0000000   -0.011499786039
     11   S      37            64.7100000   -0.046826727010
     11   S      38            21.0600000   -0.128466168750
     11   S      39             7.4950000   -0.301266272463
     11   S      40             2.7970000   -0.255630702330
     11   S      41             0.5215000    1.093793361012

     12   S      42             0.1596000    1.000000000000

     13   P      43             9.4390000    0.056979251590
     13   P      44             2.0020000    0.313207211501
     13   P      45             0.5456000    0.760376741738

     14   P      46             0.1517000    1.000000000000

     15   D      47             0.5500000    1.000000000000

     16   S      48             0.0469000    1.000000000000

     17   P      49             0.0404100    1.000000000000

     18   D      50             0.1510000    1.000000000000

 H         

     19   S      51            13.0100000    0.033498726390
     19   S      52             1.9620000    0.234800801174
     19   S      53             0.4446000    0.813682957883

     20   S      54             0.1220000    1.000000000000

     21   P      55             0.7270000    1.000000000000

     22   S      56             0.0297400    1.000000000000

     23   P      57             0.1410000    1.000000000000

 H         

     24   S      58            13.0100000    0.033498726390
     24   S      59             1.9620000    0.234800801174
     24   S      60             0.4446000    0.813682957883

     25   S      61             0.1220000    1.000000000000

     26   P      62             0.7270000    1.000000000000

     27   S      63             0.0297400    1.000000000000

     28   P      64             0.1410000    1.000000000000

 H         

     29   S      65            13.0100000    0.033498726390
     29   S      66             1.9620000    0.234800801174
     29   S      67             0.4446000    0.813682957883

     30   S      68             0.1220000    1.000000000000

     31   P      69             0.7270000    1.000000000000

     32   S      70             0.0297400    1.000000000000

     33   P      71             0.1410000    1.000000000000

 C         

     34   S      72          6665.0000000    0.000691583963
     34   S      73          1000.0000000    0.005325796153
     34   S      74           228.0000000    0.027060721042
     34   S      75            64.7100000    0.101656846141
     34   S      76            21.0600000    0.274574823617
     34   S      77             7.4950000    0.448294318924
     34   S      78             2.7970000    0.284902610715
     34   S      79             0.5215000    0.015194859206

     35   S      80          6665.0000000   -0.000293269653
     35   S      81          1000.0000000   -0.002318035474
     35   S      82           228.0000000   -0.011499786039
     35   S      83            64.7100000   -0.046826727010
     35   S      84            21.0600000   -0.128466168750
     35   S      85             7.4950000   -0.301266272463
     35   S      86             2.7970000   -0.255630702330
     35   S      87             0.5215000    1.093793361012

     36   S      88             0.1596000    1.000000000000

     37   P      89             9.4390000    0.056979251590
     37   P      90             2.0020000    0.313207211501
     37   P      91             0.5456000    0.760376741738

     38   P      92             0.1517000    1.000000000000

     39   D      93             0.5500000    1.000000000000

     40   S      94             0.0469000    1.000000000000

     41   P      95             0.0404100    1.000000000000

     42   D      96             0.1510000    1.000000000000

 C         

     43   S      97          6665.0000000    0.000691583963
     43   S      98          1000.0000000    0.005325796153
     43   S      99           228.0000000    0.027060721042
     43   S     100            64.7100000    0.101656846141
     43   S     101            21.0600000    0.274574823617
     43   S     102             7.4950000    0.448294318924
     43   S     103             2.7970000    0.284902610715
     43   S     104             0.5215000    0.015194859206

     44   S     105          6665.0000000   -0.000293269653
     44   S     106          1000.0000000   -0.002318035474
     44   S     107           228.0000000   -0.011499786039
     44   S     108            64.7100000   -0.046826727010
     44   S     109            21.0600000   -0.128466168750
     44   S     110             7.4950000   -0.301266272463
     44   S     111             2.7970000   -0.255630702330
     44   S     112             0.5215000    1.093793361012

     45   S     113             0.1596000    1.000000000000

     46   P     114             9.4390000    0.056979251590
     46   P     115             2.0020000    0.313207211501
     46   P     116             0.5456000    0.760376741738

     47   P     117             0.1517000    1.000000000000

     48   D     118             0.5500000    1.000000000000

     49   S     119             0.0469000    1.000000000000

     50   P     120             0.0404100    1.000000000000

     51   D     121             0.1510000    1.000000000000

 H         

     52   S     122            13.0100000    0.033498726390
     52   S     123             1.9620000    0.234800801174
     52   S     124             0.4446000    0.813682957883

     53   S     125             0.1220000    1.000000000000

     54   P     126             0.7270000    1.000000000000

     55   S     127             0.0297400    1.000000000000

     56   P     128             0.1410000    1.000000000000

 H         

     57   S     129            13.0100000    0.033498726390
     57   S     130             1.9620000    0.234800801174
     57   S     131             0.4446000    0.813682957883

     58   S     132             0.1220000    1.000000000000

     59   P     133             0.7270000    1.000000000000

     60   S     134             0.0297400    1.000000000000

     61   P     135             0.1410000    1.000000000000

 H         

     62   S     136            13.0100000    0.033498726390
     62   S     137             1.9620000    0.234800801174
     62   S     138             0.4446000    0.813682957883

     63   S     139             0.1220000    1.000000000000

     64   P     140             0.7270000    1.000000000000

     65   S     141             0.0297400    1.000000000000

     66   P     142             0.1410000    1.000000000000

 TOTAL NUMBER OF BASIS SET SHELLS             =   66
 NUMBER OF CARTESIAN GAUSSIAN BASIS FUNCTIONS =  154
 NOTE: THIS RUN WILL RESTRICT THE MO VARIATION SPACE TO SPHERICAL HARMONICS.
 THE NUMBER OF ORBITALS KEPT IN THE VARIATIONAL SPACE WILL BE PRINTED LATER.
 NUMBER OF ELECTRONS                          =   30
 CHARGE OF MOLECULE                           =    0
 SPIN MULTIPLICITY                            =    1
 NUMBER OF OCCUPIED ORBITALS (ALPHA)          =   15
 NUMBER OF OCCUPIED ORBITALS (BETA )          =   15
 TOTAL NUMBER OF ATOMS                        =   10
 THE NUCLEAR REPULSION ENERGY IS      103.3460546486

 SELECTED MURRAY-HANDY-LAMING RADIAL GRID

 LEGACY BECKE'S FUZZY CELL METHOD

 SELECTED ORIGINAL BECKE'S PARTITION FUNCTION

     LEBEDEV GRID-BASED DFT OPTIONS
     ------------------------------
     DFTTYP=B3LYP   
     NRAD  =      96     NLEB  =     302
     NRAD0 =      24     NLEB0 =     110
     SWOFF =    5.00E-03 (PURE SCF -> DFT)
     SWITCH=    3.00E-04 (COARSE -> TIGHT GRID)
     THRESH=    0.00E+00 GTHRE=    1.00E+00

 GRIMME'S EMPIRICAL DISPERSION CORRECTION= F

     $CONTRL OPTIONS
     ---------------
 SCFTYP=UHF          RUNTYP=LMOEDA       EXETYP=RUN     
 MPLEVL=       0     CITYP =NONE         CCTYP =NONE         VBTYP =NONE    
 DFTTYP=B3LYP        TDDFT =NONE    
 MULT  =       1     ICHARG=       0     NZVAR =       0     COORD =UNIQUE  
 PP    =NONE         RELWFN=NONE         LOCAL =NONE         NUMGRD=       F
 ISPHER=       1     NOSYM =       0     MAXIT =      30     UNITS =ANGS    
 PLTORB=       F     MOLPLT=       F     AIMPAC=       F     FRIEND=        
 NPRINT=       7     IREST =       0     GEOM  =INPUT   
 NORMF =       0     NORMP =       0     ITOL  =      20     ICUT  =       9
 INTTYP=BEST         GRDTYP=BEST         QMTTOL= 1.0E-06

     $SYSTEM OPTIONS
     ---------------
  REPLICATED MEMORY=   150000000 WORDS (ON EVERY NODE).
 DISTRIBUTED MEMDDI=         150 MILLION WORDS IN AGGREGATE,
 MEMDDI DISTRIBUTED OVER  16 PROCESSORS IS     9375000 WORDS/PROCESSOR.
 TOTAL MEMORY REQUESTED ON EACH PROCESSOR=   159375000 WORDS.
 TIMLIM=      525600.00 MINUTES, OR     365.0 DAYS.
 PARALL= T  BALTYP=  DLB     KDIAG=    0  COREFL= F
 MXSEQ2=     300 MXSEQ3=     150  mem10=         0  mem22=         0

 Using Gaussians for PCM contribution to MEP, params: 0.10000E+01 0.10000E-07

          ----------------
          PROPERTIES INPUT
          ----------------

     MOMENTS            FIELD           POTENTIAL          DENSITY
 IEMOM =       1   IEFLD =       0   IEPOT =       0   IEDEN =       0
 WHERE =COMASS     WHERE =NUCLEI     WHERE =NUCLEI     WHERE =NUCLEI  
 OUTPUT=BOTH       OUTPUT=BOTH       OUTPUT=BOTH       OUTPUT=BOTH    
 IEMINT=       0   IEFINT=       0                     IEDINT=       0
                                                       MORB  =       0
          EXTRAPOLATION IN EFFECT
          DIIS IN EFFECT
          DIIS or SOSCF will be reset if energy rises
 ORBITAL PRINTING OPTION: NPREO=     1   154     2     1

     -------------------------------
     INTEGRAL TRANSFORMATION OPTIONS
     -------------------------------
     NWORD  =            0
     CUTOFF = 1.0E-09     MPTRAN =       0
     DIRTRF =       F     AOINTS =DUP     

          -----------------------------
          LOCALIZATION INPUT PARAMETERS
          -----------------------------
           LOCAL=RUEDNBRG      NOUTA=       0
          PRTLOC=       F      NOUTB=       0
          MAXLOC=     250     CVGLOC=1.00E-06
           FCORE=       F     SYMLOC=       F
          MOIDON=       F     EDCOMP=       F
          DIPDCM=       F      NPROT=       0
          QADDCM=       F     DEPRNT=       F
          POLNUM=       F     ORIENT=       F
          POLDYN=       F      VMTOL=1.50E-01
          NPRDTL=       2     IBOYAL=       1

          ----------------------
          INTEGRAL INPUT OPTIONS
          ----------------------
 NOPK  =       1 NORDER=       0 SCHWRZ=       T

     ------------------------------------------
     THE POINT GROUP IS C1 , NAXIS= 0, ORDER= 1
     ------------------------------------------

 -- VARIATIONAL SPACE WILL BE RESTRICTED TO PURE SPHERICAL HARMONICS ONLY --
 AFTER EXCLUDING CONTAMINANT COMBINATIONS FROM THE CARTESIAN GAUSSIAN BASIS
 SET, THE NUMBER OF SPHERICAL HARMONICS KEPT IN THE VARIATION SPACE IS  146

     DIMENSIONS OF THE SYMMETRY SUBSPACES ARE
 A   =  146

 ..... DONE SETTING UP THE RUN .....
 CPU     0: STEP CPU TIME=     0.03 TOTAL CPU TIME=          0.0 (      0.0 MIN)
 TOTAL WALL CLOCK TIME=          0.0 SECONDS, CPU UTILIZATION IS    80.29%

          --------------
          GKSEDA OPTIONS
          --------------
          NMOL  =       2          EDATYP=GKS     
          SUPBAS=       T          RDVECM=       F          ITRTN =       T

 *******************
 GKSEDA IS BEGINNING
 *******************

 NMOL =  2

 MONOMER     ATOM   CHARGE ELECTRON MULTIPLE
 -------------------------------------------
       1        5        0       15        2
       2        5        0       15       -2
 -------------------------------------------

 SAVING MOL INFO REQUIRES    598670 WORDS OF MEMORY.

          ********************
          1 ELECTRON INTEGRALS
          ********************
 ...... END OF ONE-ELECTRON INTEGRALS ......
 CPU     0: STEP CPU TIME=     0.01 TOTAL CPU TIME=          0.0 (      0.0 MIN)
 TOTAL WALL CLOCK TIME=          0.0 SECONDS, CPU UTILIZATION IS    81.87%

          -------------
          GUESS OPTIONS
          -------------
          GUESS =HUCKEL            NORB  =       0          NORDER=       0
          MIX   =       F          PRTMO =       F          PUNMO =       F
          TOLZ  = 1.0E-08          TOLE  = 1.0E-05
          SYMDEN=       F          PURIFY=       F

 INITIAL GUESS ORBITALS GENERATED BY HUCKEL   ROUTINE.
 HUCKEL GUESS REQUIRES    180842 WORDS.

 STATISTICS FOR GENERATION OF SYMMETRY ORBITAL -Q- MATRIX
 NUMBER OF CARTESIAN ATOMIC ORBITALS=        154
 NUMBER OF SPHERICAL CONTAMINANTS DROPPED=     8
 NUMBER OF LINEARLY DEPENDENT MOS DROPPED=     0
 TOTAL NUMBER OF MOS IN VARIATION SPACE=     146

 SYMMETRIES FOR INITIAL GUESS ORBITALS FOLLOW.  ALPHA SET(S).
    15 ORBITALS ARE OCCUPIED (    4 CORE ORBITALS).
     5=A        6=A        7=A        8=A        9=A       10=A       11=A   
    12=A       13=A       14=A       15=A       16=A       17=A       18=A   
    19=A       20=A       21=A       22=A       23=A       24=A       25=A   

 SYMMETRIES FOR INITIAL GUESS ORBITALS FOLLOW.   BETA SET(S).
    15 ORBITALS ARE OCCUPIED (    4 CORE ORBITALS).
     5=A        6=A        7=A        8=A        9=A       10=A       11=A   
    12=A       13=A       14=A       15=A       16=A       17=A       18=A   
    19=A       20=A       21=A       22=A       23=A       24=A       25=A   
 ...... END OF INITIAL ORBITAL SELECTION ......
 CPU     0: STEP CPU TIME=     0.01 TOTAL CPU TIME=          0.0 (      0.0 MIN)
 TOTAL WALL CLOCK TIME=          0.1 SECONDS, CPU UTILIZATION IS    86.05%

          -------------------------
          MONOMER  1 WITH OWN BASIS
          -------------------------

     ------------------------------------------
     THE POINT GROUP IS C1 , NAXIS= 0, ORDER= 1
     ------------------------------------------

 -- VARIATIONAL SPACE WILL BE RESTRICTED TO PURE SPHERICAL HARMONICS ONLY --
 AFTER EXCLUDING CONTAMINANT COMBINATIONS FROM THE CARTESIAN GAUSSIAN BASIS
 SET, THE NUMBER OF SPHERICAL HARMONICS KEPT IN THE VARIATION SPACE IS   73

     DIMENSIONS OF THE SYMMETRY SUBSPACES ARE
 A   =   73

          ********************
          1 ELECTRON INTEGRALS
          ********************
 ...... END OF ONE-ELECTRON INTEGRALS ......
 CPU     0: STEP CPU TIME=     0.01 TOTAL CPU TIME=          0.1 (      0.0 MIN)
 TOTAL WALL CLOCK TIME=          0.1 SECONDS, CPU UTILIZATION IS    85.51%

          -------------
          GUESS OPTIONS
          -------------
          GUESS =HUCKEL            NORB  =       0          NORDER=       0
          MIX   =       F          PRTMO =       F          PUNMO =       F
          TOLZ  = 1.0E-08          TOLE  = 1.0E-05
          SYMDEN=       F          PURIFY=       F

 INITIAL GUESS ORBITALS GENERATED BY HUCKEL   ROUTINE.
 HUCKEL GUESS REQUIRES     47410 WORDS.

 STATISTICS FOR GENERATION OF SYMMETRY ORBITAL -Q- MATRIX
 NUMBER OF CARTESIAN ATOMIC ORBITALS=         77
 NUMBER OF SPHERICAL CONTAMINANTS DROPPED=     4
 NUMBER OF LINEARLY DEPENDENT MOS DROPPED=     0
 TOTAL NUMBER OF MOS IN VARIATION SPACE=      73

 SYMMETRIES FOR INITIAL GUESS ORBITALS FOLLOW.  ALPHA SET(S).
     8 ORBITALS ARE OCCUPIED (    2 CORE ORBITALS).
     3=A        4=A        5=A        6=A        7=A        8=A        9=A   
    10=A       11=A       12=A       13=A       14=A       15=A       16=A   
    17=A       18=A   

 SYMMETRIES FOR INITIAL GUESS ORBITALS FOLLOW.   BETA SET(S).
     7 ORBITALS ARE OCCUPIED (    2 CORE ORBITALS).
     3=A        4=A        5=A        6=A        7=A        8=A        9=A   
    10=A       11=A       12=A       13=A       14=A       15=A       16=A   
    17=A   
 ...... END OF INITIAL ORBITAL SELECTION ......
 CPU     0: STEP CPU TIME=     0.00 TOTAL CPU TIME=          0.1 (      0.0 MIN)
 TOTAL WALL CLOCK TIME=          0.1 SECONDS, CPU UTILIZATION IS    86.17%

                    ----------------------
                    AO INTEGRAL TECHNOLOGY
                    ----------------------
     S,P,L SHELL ROTATED AXIS INTEGRALS, REPROGRAMMED BY
        KAZUYA ISHIMURA (IMS) AND JOSE SIERRA (SYNSTAR).
     S,P,D,L SHELL ROTATED AXIS INTEGRALS PROGRAMMED BY
        KAZUYA ISHIMURA (INSTITUTE FOR MOLECULAR SCIENCE).
     S,P,D,F,G SHELL TO TOTAL QUARTET ANGULAR MOMENTUM SUM 5,
        ERIC PROGRAM BY GRAHAM FLETCHER (ELORET AND NASA ADVANCED
        SUPERCOMPUTING DIVISION, AMES RESEARCH CENTER).
     S,P,D,F,G,L SHELL GENERAL RYS QUADRATURE PROGRAMMED BY
        MICHEL DUPUIS (PACIFIC NORTHWEST NATIONAL LABORATORY).

          --------------------
          2 ELECTRON INTEGRALS
          --------------------

 THE -PK- OPTION IS OFF, THE INTEGRALS ARE NOT IN SUPERMATRIX FORM.
 STORING   15000 INTEGRALS/RECORD ON DISK, USING 12 BYTES/INTEGRAL.
 TWO ELECTRON INTEGRAL EVALUATION REQUIRES   90957 WORDS OF MEMORY.
 SCHWARZ INEQUALITY OVERHEAD:      3003 INTEGRALS, T=        0.00
 II,JST,KST,LST =  1  1  1  1 NREC =         1 INTLOC =    1
 II,JST,KST,LST =  2  1  1  1 NREC =         1 INTLOC =    1
 II,JST,KST,LST =  3  1  1  1 NREC =         1 INTLOC =    1
 II,JST,KST,LST =  4  1  1  1 NREC =         1 INTLOC =    1
 II,JST,KST,LST =  5  1  1  1 NREC =         1 INTLOC =    1
 II,JST,KST,LST =  6  1  1  1 NREC =         1 INTLOC =    1
 II,JST,KST,LST =  7  1  1  1 NREC =         1 INTLOC =    4
 II,JST,KST,LST =  8  1  1  1 NREC =         1 INTLOC =   49
 II,JST,KST,LST =  9  1  1  1 NREC =         1 INTLOC =  589
 II,JST,KST,LST = 10  1  1  1 NREC =         1 INTLOC =  589
 II,JST,KST,LST = 11  1  1  1 NREC =         1 INTLOC =  589
 II,JST,KST,LST = 12  1  1  1 NREC =         1 INTLOC = 1015
 II,JST,KST,LST = 13  1  1  1 NREC =         1 INTLOC = 1337
 II,JST,KST,LST = 14  1  1  1 NREC =         1 INTLOC = 4879
 II,JST,KST,LST = 15  1  1  1 NREC =         1 INTLOC = 4879
 II,JST,KST,LST = 16  1  1  1 NREC =         1 INTLOC = 6628
 II,JST,KST,LST = 17  1  1  1 NREC =         1 INTLOC = 7234
 II,JST,KST,LST = 18  1  1  1 NREC =         1 INTLOC = 8077
 II,JST,KST,LST = 19  1  1  1 NREC =         2 INTLOC =  244
 II,JST,KST,LST = 20  1  1  1 NREC =         3 INTLOC = 6596
 II,JST,KST,LST = 21  1  1  1 NREC =         3 INTLOC = 6596
 II,JST,KST,LST = 22  1  1  1 NREC =         4 INTLOC = 6157
 II,JST,KST,LST = 23  1  1  1 NREC =         5 INTLOC =   41
 II,JST,KST,LST = 24  1  1  1 NREC =         6 INTLOC =  602
 II,JST,KST,LST = 25  1  1  1 NREC =         6 INTLOC = 8941
 II,JST,KST,LST = 26  1  1  1 NREC =         6 INTLOC =14697
 II,JST,KST,LST = 27  1  1  1 NREC =         8 INTLOC =14301
 II,JST,KST,LST = 28  1  1  1 NREC =         8 INTLOC =14301
 II,JST,KST,LST = 29  1  1  1 NREC =        10 INTLOC =13262
 II,JST,KST,LST = 30  1  1  1 NREC =        11 INTLOC = 8482
 II,JST,KST,LST = 31  1  1  1 NREC =        11 INTLOC =13153
 II,JST,KST,LST = 32  1  1  1 NREC =        16 INTLOC = 3017
 II,JST,KST,LST = 33  1  1  1 NREC =        16 INTLOC = 3017
 SCHWARZ INEQUALITY TEST SKIPPED           0 INTEGRAL BLOCKS.
 TOTAL NUMBER OF NONZERO TWO-ELECTRON INTEGRALS =             3900326
        268 INTEGRAL RECORDS WERE STORED ON DISK FILE  8.
  ...... END OF TWO-ELECTRON INTEGRALS .....
 CPU     0: STEP CPU TIME=     0.03 TOTAL CPU TIME=          0.1 (      0.0 MIN)
 TOTAL WALL CLOCK TIME=          0.1 SECONDS, CPU UTILIZATION IS    85.75%

          ---------------------------
              U-B3LYP SCF CALCULATION
          ---------------------------

     NUCLEAR ENERGY =        27.8778272636
     MAXIT = 30     NPUNCH=  2     MULT=  2
     EXTRAP=T  DAMP=F  SHIFT=F  RSTRCT=F  DIIS=T  SOSCF=T
         DENSITY MATRIX CONVERGENCE THRESHOLD=  1.00E-05
     COARSE -> FINE DFT GRID SWITCH THRESHOLD=  3.00E-04 (SWITCH IN $DFT)
                   HF -> DFT SWITCH THRESHOLD=  5.00E-03 (SWOFF IN $DFT)
     SOSCF WILL OPTIMIZE     520 ALPHA AND     462 BETA ROTATION ANGLES.
     SOGTOL= 2.500E-01
     MEMORY REQUIRED FOR UHF/ROHF ITERS=    298732 WORDS.

     EXCHANGE FUNCTIONAL   =B88&HFX   
     CORRELATION FUNCTIONAL=LYP88&VWN5
     DFT THRESHOLD         =.690E-08
     GRID CHANGE THRESHOLD =.300E-03
 FOR AN EULER-MACLAURIN QUADRATURE USING  96 RADIAL POINTS:
 SMALLEST GAUSSIAN PRIMITIVE EXPONENT=        0.0297400000 OF TYPE -S-
 ON ATOM NUMBER   3 HAS RADIAL NORMALIZATION=  1.000000
  LARGEST GAUSSIAN PRIMITIVE EXPONENT=     6665.0000000000 OF TYPE -S-
 ON ATOM NUMBER   1 HAS RADIAL NORMALIZATION=  1.000000
 DFT IS SWITCHED OFF, PERFORMING PURE SCF UNTIL SWOFF THRESHOLD IS REACHED.

 ITER EX      TOTAL ENERGY        E CHANGE  DENSITY CHANGE    DIIS ERROR
          * * *   INITIATING DIIS PROCEDURE   * * *
   1  0      -77.1746373913   -77.1746373913   0.500548838   0.357243817
   2  1      -77.3686971199    -0.1940597286   0.154527591   0.054051772
   3  2      -77.3847376898    -0.0160405699   0.031182264   0.025939482
   4  3      -77.3891412642    -0.0044035744   0.022118369   0.011201481
   5  4      -77.3905286912    -0.0013874270   0.012901506   0.008542437
   6  5      -77.3911758787    -0.0006471876   0.024452843   0.008536929
   7  6      -77.3922424243    -0.0010665455   0.064382532   0.008284418
   8  7      -77.3946149651    -0.0023725409   0.110877142   0.006415649
   9  8      -77.3961526771    -0.0015377120   0.066594833   0.001992974
  10  9      -77.3957367220     0.0004159551   0.042035364   0.004046320
  11 10      -77.3962215269    -0.0004848049   0.006560319   0.000693937
  12 11      -77.3962348282    -0.0000133013   0.000990944   0.000110039
 CONVERGED TO SWOFF, SO DFT CALCULATION IS NOW SWITCHED ON.
          * * *   INITIATING DIIS PROCEDURE   * * *
  13 12      -77.8300954108    -0.4338605827   0.393525893   0.062366479
  14 13      -77.8466817656    -0.0165863547   0.062633102   0.016707259
  15 14      -77.8493584732    -0.0026767076   0.024670623   0.011959044
  16 15      -77.8508137869    -0.0014553137   0.050503514   0.007363705
  17 16      -77.8517916287    -0.0009778418   0.009166842   0.003411074
  18 17      -77.8518741058    -0.0000824771   0.005982005   0.001411645
  19 18      -77.8518938606    -0.0000197548   0.002018125   0.000278830
         SWDIIS THRESHOLD HAS BEEN REACHED: SWITCHING DIIS OFF.
          ---------------START SECOND ORDER SCF---------------
  20 19      -77.8518950153    -0.0000011548   0.000135854   0.000021673
  21 20      -77.8518950283    -0.0000000129   0.000155900   0.000022834
  22 21      -77.8518950288    -0.0000000005   0.000065733   0.000022269
  23 22      -77.8518950333    -0.0000000045   0.000008485   0.000002388
  24 23      -77.8518950334    -0.0000000001   0.000011674   0.000001879

          ----------------
          ENERGY CONVERGED
          ----------------
     TIME TO FORM FOCK OPERATORS=       1.2 SECONDS (       0.1 SEC/ITER)
     TIME TO SOLVE SCF EQUATIONS=       0.1 SECONDS (       0.0 SEC/ITER)

 FINAL U-B3LYP ENERGY IS      -77.8518950334 AFTER  24 ITERATIONS
 DFT EXCHANGE + CORRELATION ENERGY =        -9.5249632931
 TOTAL ELECTRON NUMBER             =        14.9999904753

          --------------------
          SPIN SZ   =    0.500
          S-SQUARED =    0.764
          --------------------

  ----- ALPHA SET ----- 

          ------------
          EIGENVECTORS
          ------------

                      1          2          3          4          5
                  -10.2290   -10.2018    -0.7671    -0.5780    -0.4646
                     A          A          A          A          A   
    1  C  1  S    0.012178   1.009650  -0.019675   0.011337  -0.002211
    2  C  1  S   -0.001519   0.022159   0.316331  -0.227112   0.001060
    3  C  1  S    0.040205  -0.073364   0.095953  -0.324429  -0.033048
    4  C  1  X   -0.000013   0.000007  -0.000017  -0.000344   0.001570
    5  C  1  Y   -0.000025  -0.000008   0.007736   0.031552   0.341348
    6  C  1  Z   -0.001006  -0.000347   0.110788   0.206934  -0.209501
    7  C  1  X    0.000128   0.000038  -0.000197  -0.000598  -0.000872
    8  C  1  Y   -0.001345  -0.000250   0.024235   0.027106  -0.016669
    9  C  1  Z    0.038650  -0.008947  -0.029546  -0.241983   0.039836
   10  C  1 XX    0.000216  -0.001628  -0.006297   0.001494  -0.001720
   11  C  1 YY    0.000860   0.000840  -0.007585  -0.011322   0.008475
   12  C  1 ZZ   -0.001076   0.000787   0.013882   0.009828  -0.006754
   13  C  1 XY    0.000013   0.000029  -0.000044  -0.000135   0.000091
   14  C  1 XZ   -0.000003   0.000008   0.000025  -0.000217  -0.000277
   15  C  1 YZ    0.000472   0.000046   0.000208   0.002355  -0.006059
   16  C  1  S    0.015260  -0.033963   0.016521   0.138222  -0.060092
   17  C  1  X    0.000018   0.000008  -0.000169  -0.000228  -0.000649
   18  C  1  Y    0.000768   0.000821  -0.003684   0.009014  -0.058824
   19  C  1  Z    0.006207  -0.003702  -0.001946   0.011812  -0.008698
   20  C  1 XX   -0.002133   0.004868   0.006375  -0.007217  -0.006282
   21  C  1 YY   -0.004480   0.001484  -0.008191   0.105835  -0.044445
   22  C  1 ZZ    0.006613  -0.006353   0.001816  -0.098618   0.050727
   23  C  1 XY   -0.000009  -0.000023  -0.000771   0.000372  -0.001199
   24  C  1 XZ    0.000002  -0.000018   0.000191   0.000123   0.001209
   25  C  1 YZ   -0.003132  -0.001064   0.024854   0.019247   0.104902
   26  C  2  S    1.009987  -0.013757  -0.017150  -0.006449  -0.000326
   27  C  2  S    0.022731  -0.001370   0.307111   0.268942  -0.070369
   28  C  2  S   -0.089919   0.024499   0.253199   0.492964  -0.240783
   29  C  2  X   -0.000052  -0.000006  -0.001293  -0.003778  -0.002488
   30  C  2  Y    0.000900   0.000106   0.024381   0.097766   0.255223
   31  C  2  Z   -0.000220   0.000912  -0.128333   0.119299   0.163077
   32  C  2  X    0.000179   0.000072   0.000870   0.001433  -0.000163
   33  C  2  Y   -0.003208  -0.001149  -0.057816  -0.092841   0.008678
   34  C  2  Z    0.030732  -0.016863  -0.091377  -0.220401   0.063148
   35  C  2 XX   -0.000855   0.000673  -0.011442  -0.001418  -0.000466
   36  C  2 YY    0.000519   0.000641  -0.003915   0.009839   0.005707
   37  C  2 ZZ    0.000336  -0.001314   0.015357  -0.008420  -0.005241
   38  C  2 XY   -0.000032  -0.000007   0.000187  -0.000135  -0.000427
   39  C  2 XZ   -0.000034   0.000001   0.000009  -0.000237  -0.000258
   40  C  2 YZ    0.000888   0.000040  -0.006125  -0.001647  -0.009711
   41  C  2  S   -0.029036   0.019811  -0.018907  -0.118414   0.021914
   42  C  2  X    0.000025   0.000034   0.000240   0.000661   0.000292
   43  C  2  Y   -0.001410  -0.001331  -0.000299  -0.026867   0.018164
   44  C  2  Z    0.004238  -0.005765   0.006642   0.004865  -0.013230
   45  C  2 XX    0.005993  -0.001052  -0.006840   0.006284   0.001233
   46  C  2 YY    0.004296  -0.001757  -0.017783  -0.059755  -0.008205
   47  C  2 ZZ   -0.010289   0.002809   0.024623   0.053470   0.006972
   48  C  2 XY    0.000024   0.000001   0.001130   0.001299   0.000947
   49  C  2 XZ    0.000096   0.000011   0.000257   0.000460   0.000629
   50  C  2 YZ   -0.004264  -0.001156   0.008736  -0.022223   0.013159
   51  H  3  S   -0.000660  -0.000101   0.124144   0.258945   0.193973
   52  H  3  S    0.021384   0.007205   0.065061   0.272434   0.107989
   53  H  3  X   -0.000051   0.000007   0.000363   0.000663   0.000444
   54  H  3  Y    0.001717  -0.000007  -0.012741  -0.016838  -0.005890
   55  H  3  Z    0.000736   0.000183  -0.011286  -0.009981  -0.005257
   56  H  3  S    0.001301   0.001931   0.003521   0.025922   0.010338
   57  H  3  X    0.000257   0.000081  -0.000077   0.002410  -0.000068
   58  H  3  Y   -0.007705  -0.002224  -0.007743  -0.042354  -0.011784
   59  H  3  Z   -0.002017  -0.000915  -0.017538  -0.029515  -0.010582
   60  H  4  S   -0.000348  -0.000854   0.116798  -0.229015  -0.141539
   61  H  4  S    0.017767   0.021920  -0.010674  -0.217805  -0.199092
   62  H  4  X   -0.000001  -0.000021   0.000183  -0.000329  -0.000129
   63  H  4  Y   -0.000211  -0.001550   0.014390  -0.016889   0.000583
   64  H  4  Z   -0.000611  -0.001015   0.012531  -0.005355  -0.009989
   65  H  4  S    0.001771   0.002006   0.000049  -0.012808  -0.041635
   66  H  4  X    0.000067   0.000103  -0.000279  -0.000872  -0.001069
   67  H  4  Y    0.004847   0.006796  -0.009317  -0.020702  -0.049733
   68  H  4  Z    0.002438   0.003031   0.008887  -0.033943   0.011185
   69  H  5  S   -0.000191  -0.000915   0.126457  -0.202988   0.341246
   70  H  5  S    0.009344   0.019034   0.014847  -0.225227   0.435242
   71  H  5  X   -0.000006   0.000008  -0.000115   0.000171  -0.000144
   72  H  5  Y   -0.000078   0.001520  -0.014505   0.016633  -0.010237
   73  H  5  Z   -0.000420  -0.000947   0.011303  -0.004937   0.005116
   74  H  5  S    0.001700   0.001131   0.002199  -0.013778   0.045616
   75  H  5  X   -0.000039  -0.000054   0.000452   0.000814  -0.000037
   76  H  5  Y   -0.002371  -0.006015   0.000651   0.020080  -0.072572
   77  H  5  Z    0.001985   0.002963  -0.001999  -0.053628   0.040803

                      6          7          8          9         10
                   -0.4138    -0.2852    -0.2731    -0.0196    -0.0019
                     A          A          A          A          A   
    1  C  1  S    0.000016  -0.000080   0.000590   0.000102  -0.002992
    2  C  1  S   -0.036354  -0.006918   0.050075   0.002193   0.084540
    3  C  1  S   -0.170112  -0.003937   0.022621   0.004776   0.345818
    4  C  1  X   -0.006633   0.389524   0.045369   0.403677  -0.000663
    5  C  1  Y   -0.254882   0.010276  -0.134412  -0.005229   0.029407
    6  C  1  Z   -0.320114  -0.018322   0.111948   0.000536  -0.096144
    7  C  1  X   -0.001441   0.214425   0.026509   0.338853  -0.001128
    8  C  1  Y    0.060538  -0.006820   0.032107  -0.002589   0.042179
    9  C  1  Z   -0.092425   0.001465  -0.021673   0.000584  -0.283527
   10  C  1 XX   -0.001155   0.000006   0.000530   0.000072   0.000938
   11  C  1 YY    0.010659   0.000135  -0.000648   0.000006  -0.002785
   12  C  1 ZZ   -0.009504  -0.000141   0.000117  -0.000077   0.001847
   13  C  1 XY    0.000083   0.000617   0.000055   0.000047   0.000030
   14  C  1 XZ   -0.000422   0.021528   0.002703  -0.030078  -0.000034
   15  C  1 YZ    0.013692  -0.004069   0.040285  -0.000789   0.001417
   16  C  1  S   -0.038929  -0.020879   0.156425  -0.001465   1.298957
   17  C  1  X    0.000036   0.028503   0.004067   0.563704   0.002465
   18  C  1  Y    0.051248  -0.002217   0.019974  -0.006825   0.037452
   19  C  1  Z   -0.015001  -0.005543   0.039723  -0.002775  -0.297534
   20  C  1 XX    0.000092   0.000669  -0.005624  -0.000311  -0.039361
   21  C  1 YY   -0.044168  -0.004224   0.028847   0.000090   0.024888
   22  C  1 ZZ    0.044076   0.003555  -0.023223   0.000221   0.014474
   23  C  1 XY   -0.001757   0.004497   0.000461  -0.003297   0.000601
   24  C  1 XZ   -0.000396   0.003774  -0.000107  -0.041868   0.000183
   25  C  1 YZ   -0.051698   0.003231  -0.034942   0.002469   0.026954
   26  C  2  S   -0.000886  -0.000045  -0.000782   0.000073  -0.002531
   27  C  2  S    0.030726   0.020698  -0.150261  -0.003820   0.056065
   28  C  2  S   -0.055295   0.040732  -0.310235  -0.009238   0.366754
   29  C  2  X   -0.008784   0.439703   0.051090  -0.411753  -0.001024
   30  C  2  Y    0.035556  -0.050042   0.471703  -0.006940   0.043734
   31  C  2  Z    0.374599   0.038284  -0.253713  -0.004173   0.082552
   32  C  2  X   -0.000580   0.254201   0.032709  -0.348780  -0.003662
   33  C  2  Y   -0.066393  -0.023108   0.241099  -0.008935   0.098833
   34  C  2  Z    0.044889   0.029626  -0.220961  -0.002368  -0.007170
   35  C  2 XX   -0.001605   0.000178  -0.004813   0.000174  -0.001695
   36  C  2 YY    0.011046   0.000361   0.000062  -0.000020  -0.004879
   37  C  2 ZZ   -0.009441  -0.000539   0.004752  -0.000153   0.006574
   38  C  2 XY   -0.000339  -0.000464  -0.000774  -0.000087   0.000025
   39  C  2 XZ   -0.000075  -0.020299  -0.002394  -0.032134   0.000003
   40  C  2 YZ    0.017761  -0.001992   0.020297   0.000785  -0.003603
   41  C  2  S   -0.014213   0.033443  -0.259524  -0.003228   0.870903
   42  C  2  X    0.000780   0.031144   0.004319  -0.515622  -0.006277
   43  C  2  Y   -0.035867  -0.002013   0.023758  -0.002928   0.190729
   44  C  2  Z   -0.015299  -0.001493   0.007105  -0.004991   0.148002
   45  C  2 XX   -0.004050  -0.001233   0.006880   0.000202  -0.039504
   46  C  2 YY   -0.036938   0.002986  -0.022898  -0.000400  -0.012590
   47  C  2 ZZ    0.040988  -0.001753   0.016018   0.000198   0.052093
   48  C  2 XY    0.002039  -0.001349   0.000076   0.008354  -0.001229
   49  C  2 XZ    0.000347  -0.007164  -0.000722  -0.037640  -0.000579
   50  C  2 YZ   -0.017140   0.000838  -0.012003   0.002126   0.033250
   51  H  3  S    0.233092  -0.021540   0.194860   0.008190   0.005280
   52  H  3  S    0.278209  -0.027810   0.248675   0.008191  -0.358442
   53  H  3  X    0.000112   0.015543   0.002189  -0.020931   0.000330
   54  H  3  Y   -0.009265  -0.000426   0.006807  -0.000282  -0.010681
   55  H  3  Z    0.001047   0.002243  -0.015794  -0.000169  -0.001559
   56  H  3  S    0.036878  -0.002313   0.027578   0.009341  -0.899181
   57  H  3  X    0.000934   0.015130   0.003438  -0.053553  -0.001206
   58  H  3  Y   -0.038773   0.002308  -0.017809   0.001459   0.031734
   59  H  3  Z   -0.036399   0.004182  -0.028953   0.000462   0.033041
   60  H  4  S    0.324765  -0.013132   0.145325  -0.004519   0.006844
   61  H  4  S    0.390765  -0.017045   0.193223  -0.007739  -0.404425
   62  H  4  X    0.000003   0.014320   0.001737   0.021807   0.000114
   63  H  4  Y    0.009650  -0.000067  -0.000852  -0.000136   0.009659
   64  H  4  Z    0.003110  -0.000727   0.005086   0.000207   0.002029
   65  H  4  S    0.035744  -0.003549   0.039724  -0.014490  -0.637775
   66  H  4  X    0.000616   0.015579   0.002303   0.045328  -0.001333
   67  H  4  Y    0.054966  -0.003873   0.035441  -0.000239  -0.063717
   68  H  4  Z    0.052180  -0.000282   0.003405   0.001899  -0.016916
   69  H  5  S   -0.072265   0.022935  -0.208826   0.002503   0.003855
   70  H  5  S   -0.183139   0.037122  -0.335781   0.005320  -0.420103
   71  H  5  X   -0.000139   0.014262   0.001753   0.022661  -0.000074
   72  H  5  Y   -0.003194  -0.000203  -0.000103  -0.000191  -0.012233
   73  H  5  Z   -0.010873  -0.000128   0.000260  -0.000158   0.003419
   74  H  5  S   -0.043089   0.003292  -0.041728   0.003717  -1.138527
   75  H  5  X    0.001335   0.012640   0.002254   0.052834   0.000482
   76  H  5  Y    0.050993  -0.004728   0.042967  -0.000499   0.036477
   77  H  5  Z   -0.005801   0.003228  -0.022921  -0.001050  -0.024899

                     11         12         13         14         15
                    0.0149     0.0250     0.0627     0.0712     0.0790
                     A          A          A          A          A   
    1  C  1  S   -0.001260   0.002379   0.000973   0.007687   0.002913
    2  C  1  S    0.067545  -0.017200  -0.001402  -0.012035   0.044113
    3  C  1  S    0.185084  -0.128527  -0.052997  -0.389434   0.153599
    4  C  1  X   -0.002214  -0.002520   0.171892  -0.016179   0.001780
    5  C  1  Y   -0.067270  -0.118527   0.000789   0.037181   0.011458
    6  C  1  Z   -0.036297   0.005118   0.000674   0.013815   0.054289
    7  C  1  X   -0.003336  -0.006590   0.199327  -0.017188  -0.001142
    8  C  1  Y   -0.171147  -0.371990   0.001792   0.101474   0.010179
    9  C  1  Z   -0.273479   0.105232  -0.011071   0.031999  -0.046380
   10  C  1 XX    0.002806  -0.003170  -0.000475  -0.007379  -0.006804
   11  C  1 YY    0.004862  -0.001736   0.000126   0.001052  -0.010949
   12  C  1 ZZ   -0.007668   0.004906   0.000350   0.006327   0.017754
   13  C  1 XY   -0.000108   0.000003  -0.000867   0.000142  -0.000120
   14  C  1 XZ    0.000305  -0.000042   0.006124  -0.000371  -0.000094
   15  C  1 YZ   -0.004799  -0.003814  -0.000981  -0.010504   0.003012
   16  C  1  S    0.434061  -1.739099  -1.157609 -10.807625   1.491887
   17  C  1  X   -0.017579  -0.018105  -0.624914   0.071126  -0.008990
   18  C  1  Y   -0.201649  -1.941210   0.095278   0.428339  -0.493080
   19  C  1  Z   -0.531907  -0.366229  -0.487558  -4.813386  -1.568110
   20  C  1 XX   -0.010946   0.016561   0.008257   0.081263   0.022947
   21  C  1 YY    0.022422  -0.051248  -0.011399  -0.153693   0.016824
   22  C  1 ZZ   -0.011476   0.034686   0.003142   0.072430  -0.039771
   23  C  1 XY   -0.000467   0.000452   0.023788  -0.004211   0.001484
   24  C  1 XZ    0.000883   0.000090   0.040723  -0.004200   0.001243
   25  C  1 YZ   -0.043284   0.099774  -0.004262   0.004463   0.114376
   26  C  2  S   -0.001252  -0.000747  -0.001003  -0.005485   0.005498
   27  C  2  S   -0.072981   0.048024   0.003626   0.040735   0.030595
   28  C  2  S   -0.230911   0.244397   0.065978   0.429961   0.052216
   29  C  2  X    0.004588  -0.000375   0.127773  -0.010076   0.000774
   30  C  2  Y   -0.085128  -0.046015  -0.011692  -0.141922   0.061116
   31  C  2  Z   -0.027877   0.023384   0.001695   0.004612  -0.075667
   32  C  2  X    0.008711  -0.002605   0.144901  -0.022013   0.005201
   33  C  2  Y   -0.159927   0.093131   0.024153   0.115488  -0.142490
   34  C  2  Z   -0.249902   0.149149  -0.007469   0.043676  -0.064735
   35  C  2 XX   -0.003384   0.001485  -0.000196   0.001432  -0.010026
   36  C  2 YY   -0.001775   0.002138   0.000331  -0.000554  -0.013470
   37  C  2 ZZ    0.005159  -0.003623  -0.000134  -0.000879   0.023496
   38  C  2 XY   -0.000262   0.000005   0.003914  -0.000212   0.000090
   39  C  2 XZ    0.000136   0.000206  -0.013353   0.001252  -0.000002
   40  C  2 YZ    0.008179   0.007569   0.000286   0.001968  -0.006684
   41  C  2  S   -0.496514   2.274288   1.187862  11.105806  -0.292884
   42  C  2  X    0.027239  -0.002708  -0.590530   0.071758  -0.011621
   43  C  2  Y   -0.556221   1.022635  -0.026042   0.318399  -0.060468
   44  C  2  Z   -0.625371  -0.231839  -0.467744  -4.177463   1.875713
   45  C  2 XX    0.007782  -0.041115  -0.007366  -0.076008   0.063234
   46  C  2 YY   -0.063221   0.032954   0.006004   0.084542  -0.027342
   47  C  2 ZZ    0.055439   0.008160   0.001362  -0.008534  -0.035893
   48  C  2 XY    0.002702  -0.001608  -0.039755  -0.000723   0.000152
   49  C  2 XZ    0.001885  -0.002142  -0.015389   0.000297  -0.001755
   50  C  2 YZ   -0.072487   0.084949   0.002578   0.059563   0.083024
   51  H  3  S    0.016292   0.015035  -0.000638  -0.022694  -0.017556
   52  H  3  S    0.671650  -0.545977  -0.088249  -0.848077   0.216050
   53  H  3  X   -0.000230   0.000159  -0.005769   0.000285   0.000214
   54  H  3  Y    0.010277   0.000131   0.000943   0.009766  -0.008457
   55  H  3  Z    0.008198  -0.000485   0.000237   0.005340   0.007039
   56  H  3  S    2.556909  -1.430342   0.345613   3.478181  -0.153451
   57  H  3  X    0.003039  -0.005260   0.038464  -0.010245   0.003333
   58  H  3  Y   -0.083271   0.132683   0.016941   0.136124  -0.084837
   59  H  3  Z   -0.021287   0.003430   0.019678   0.140220  -0.096866
   60  H  4  S   -0.009514   0.012720  -0.001881  -0.023413  -0.024250
   61  H  4  S   -0.446569  -0.454121   0.056653   0.589564  -0.346289
   62  H  4  X   -0.000042   0.000026  -0.003529   0.000403   0.000059
   63  H  4  Y    0.007613   0.002784   0.000210  -0.000182   0.003646
   64  H  4  Z    0.007139   0.002823  -0.000785  -0.010512  -0.011230
   65  H  4  S   -2.038834  -3.109383   0.029303   0.444479  -1.128906
   66  H  4  X   -0.001219  -0.000407   0.070360  -0.005910   0.001221
   67  H  4  Y   -0.060149  -0.053077   0.000993   0.032900  -0.011840
   68  H  4  Z   -0.008049  -0.053109   0.010577   0.144535   0.029947
   69  H  5  S    0.002757  -0.002485   0.001959   0.025380  -0.038344
   70  H  5  S   -0.160998   0.860003   0.031970   0.405707   0.096964
   71  H  5  X   -0.000248  -0.000011  -0.004194   0.000337  -0.000104
   72  H  5  Y   -0.002484   0.004217   0.000026  -0.001359  -0.006297
   73  H  5  Z    0.003258  -0.007298  -0.000281  -0.002371  -0.014330
   74  H  5  S   -0.491661   3.802873  -0.425977  -4.336213   0.584312
   75  H  5  X    0.000984  -0.001488   0.030741  -0.005303  -0.000107
   76  H  5  Y    0.063846  -0.091708  -0.001067  -0.002421  -0.090840
   77  H  5  Z    0.051367   0.068447   0.010651   0.100623   0.038097

                     16         17         18         19         20
                    0.1117     0.1127     0.1167     0.1279     0.1459
                     A          A          A          A          A   
    1  C  1  S    0.005586   0.001815  -0.038829  -0.014850  -0.015055
    2  C  1  S   -0.058463  -0.011839  -0.204847  -0.019003  -0.120967
    3  C  1  S   -0.991031  -0.249515   0.322357   0.524296   0.536062
    4  C  1  X   -0.054789   0.230055   0.000948   0.005893  -0.000830
    5  C  1  Y    0.110980   0.024020  -0.084360   0.237438   0.040353
    6  C  1  Z    0.002487   0.000297   0.121542   0.000661   0.131044
    7  C  1  X   -0.049102   0.180887  -0.000326  -0.009849  -0.008151
    8  C  1  Y   -0.412731  -0.102008   0.296064  -0.930470  -0.171022
    9  C  1  Z   -1.212440  -0.296385  -1.552981  -0.380416   1.547277
   10  C  1 XX    0.000997   0.000017   0.019899   0.016713  -0.039558
   11  C  1 YY   -0.000273   0.000034   0.003772  -0.008218   0.048884
   12  C  1 ZZ   -0.000723  -0.000051  -0.023671  -0.008496  -0.009326
   13  C  1 XY   -0.000688   0.001117  -0.000202   0.000258   0.000479
   14  C  1 XZ    0.001280  -0.006764  -0.000039   0.000080   0.000033
   15  C  1 YZ    0.023693   0.005381  -0.007279   0.009288  -0.016638
   16  C  1  S   -5.599067  -1.285036   5.086258   5.291454   0.185540
   17  C  1  X    0.494309  -2.181632  -0.007010  -0.058866  -0.015898
   18  C  1  Y   -0.296906  -0.071362   1.845515  -6.050409  -2.451890
   19  C  1  Z   -3.541196  -0.821478  -1.934797   1.711943   0.576118
   20  C  1 XX    0.045375   0.012878  -0.160801  -0.037184  -0.096134
   21  C  1 YY    0.180902   0.042676   0.343117   0.202093  -0.660723
   22  C  1 ZZ   -0.226277  -0.055554  -0.182315  -0.164909   0.756857
   23  C  1 XY    0.008711  -0.032804   0.004958   0.003953  -0.004185
   24  C  1 XZ    0.015146  -0.055183  -0.001041   0.001204   0.003664
   25  C  1 YZ   -0.059693  -0.014562  -0.014980   0.330907   0.323060
   26  C  2  S    0.008318   0.002593  -0.036039  -0.026357   0.024681
   27  C  2  S    0.109624   0.027083  -0.112645  -0.099386   0.013381
   28  C  2  S    0.477910   0.099615   1.284094   0.782032  -2.187078
   29  C  2  X    0.051173  -0.235860  -0.001504  -0.001184   0.004933
   30  C  2  Y    0.177400   0.039192  -0.007467   0.001714  -0.092540
   31  C  2  Z    0.058473   0.013201  -0.085126  -0.008634  -0.067480
   32  C  2  X    0.071230  -0.217775  -0.008386  -0.012198   0.006624
   33  C  2  Y   -0.353772  -0.108739   0.135682   0.402846  -0.513269
   34  C  2  Z   -1.343431  -0.340055  -0.892549   0.124428   1.090505
   35  C  2 XX   -0.004668  -0.001091   0.005447   0.013598  -0.011847
   36  C  2 YY    0.005940   0.001120   0.002434  -0.007885   0.017798
   37  C  2 ZZ   -0.001272  -0.000029  -0.007881  -0.005713  -0.005951
   38  C  2 XY    0.000760  -0.005940  -0.000377   0.000173   0.000245
   39  C  2 XZ    0.000774  -0.004055   0.000099  -0.000266   0.000451
   40  C  2 YZ   -0.015833  -0.003141   0.004064  -0.017154   0.001500
   41  C  2  S    4.035218   0.800935   2.619227  -0.911080  -1.965526
   42  C  2  X   -0.437570   2.193899   0.021662  -0.031276  -0.006453
   43  C  2  Y   -2.736361  -0.669492  -0.760425   3.501483   0.704666
   44  C  2  Z   -4.120467  -0.970570  -0.135847   2.246145   1.089486
   45  C  2 XX    0.008100   0.001700  -0.128102  -0.071476  -0.023787
   46  C  2 YY   -0.301260  -0.074170  -0.129052   0.039996   0.196216
   47  C  2 ZZ    0.293160   0.072471   0.257154   0.031480  -0.172429
   48  C  2 XY   -0.002961   0.063118  -0.001830  -0.002446   0.001109
   49  C  2 XZ    0.027027  -0.081062  -0.002400  -0.005047  -0.003455
   50  C  2 YZ   -0.240697  -0.062077   0.095476   0.144655   0.186599
   51  H  3  S   -0.021623   0.000131   0.010490  -0.087308   0.102178
   52  H  3  S    2.197018   0.599655  -0.541091  -1.784657   0.607405
   53  H  3  X    0.000600  -0.000461  -0.000316  -0.000430   0.000199
   54  H  3  Y   -0.019238  -0.005115   0.011451   0.011022  -0.008257
   55  H  3  Z   -0.011741  -0.003292  -0.001856   0.015085  -0.005198
   56  H  3  S    6.031521   1.485477   0.154491  -3.842074  -0.773098
   57  H  3  X    0.041647  -0.112580  -0.008446  -0.015891   0.004658
   58  H  3  Y   -0.598167  -0.158035   0.247496   0.280898   0.213634
   59  H  3  Z   -0.377519  -0.097611   0.067917   0.160974  -0.141132
   60  H  4  S    0.027758   0.004371  -0.002426  -0.057980   0.099826
   61  H  4  S   -1.048651  -0.250924  -1.677056  -3.137106   0.715005
   62  H  4  X    0.000008  -0.000295  -0.000134  -0.000221  -0.000294
   63  H  4  Y   -0.010625  -0.002658  -0.009498  -0.022827  -0.024174
   64  H  4  Z   -0.008697  -0.002193  -0.000938  -0.011050   0.005789
   65  H  4  S   -3.806757  -0.893353  -0.768923  -5.116861  -1.971334
   66  H  4  X   -0.021142   0.087482  -0.005632  -0.013009   0.000301
   67  H  4  Y   -0.322367  -0.075908  -0.440919  -0.569996  -0.476168
   68  H  4  Z   -0.297667  -0.067741  -0.206223  -0.569365   0.399137
   69  H  5  S   -0.019997  -0.002530  -0.017641  -0.022831   0.225900
   70  H  5  S   -0.039368   0.000961  -2.731919   1.095508   2.822730
   71  H  5  X   -0.000366   0.001490   0.000277  -0.000076   0.000003
   72  H  5  Y   -0.007859  -0.002155   0.026086  -0.016541   0.011478
   73  H  5  Z    0.000639   0.000177  -0.013668   0.014697  -0.000219
   74  H  5  S   -1.209843  -0.284074  -4.239854   6.557643   2.816873
   75  H  5  X   -0.028140   0.118362   0.004592   0.001638  -0.002240
   76  H  5  Y   -0.006747  -0.002367   0.669381  -0.420969   0.141357
   77  H  5  Z    0.102042   0.024078  -0.422078   0.163556   0.435753

                     21         22         23         24         25
                    0.1685     0.1954     0.2193     0.2531     0.2857
                     A          A          A          A          A   
    1  C  1  S    0.049137   0.018746   0.000417  -0.005176  -0.009998
    2  C  1  S    0.157873   0.012470   0.000655  -0.030492  -0.137276
    3  C  1  S   -2.128213  -0.561720   0.014488   0.750626   0.398091
    4  C  1  X   -0.005277   0.004530   0.001772  -0.001739   0.002645
    5  C  1  Y   -0.065986   0.123710  -0.018950  -0.199667   0.008618
    6  C  1  Z   -0.061740  -0.020439   0.001112   0.075187  -0.015643
    7  C  1  X   -0.007329  -0.006448  -0.068425   0.000445   0.007538
    8  C  1  Y   -0.093355   0.602362  -0.031655  -0.226748   0.088047
    9  C  1  Z   -1.013630   1.219619   0.079401   0.742342   2.417997
   10  C  1 XX    0.014216  -0.024840   0.000860  -0.015368  -0.023720
   11  C  1 YY   -0.005829   0.025839  -0.001439   0.017394  -0.073754
   12  C  1 ZZ   -0.008387  -0.000999   0.000579  -0.002027   0.097474
   13  C  1 XY   -0.001933   0.001877   0.047363  -0.002936   0.000045
   14  C  1 XZ    0.000341  -0.000277  -0.002675  -0.000676   0.000858
   15  C  1 YZ   -0.037634   0.037360  -0.005395  -0.031565  -0.013072
   16  C  1  S  -18.283182 -20.805238  -0.749034 -10.350808   2.303567
   17  C  1  X   -0.021455   0.014394   0.015880  -0.012014   0.008446
   18  C  1  Y   -0.148356   2.486575  -0.122539  -1.743834  -0.970191
   19  C  1  Z   -6.196329  -5.899633  -0.229439  -2.269888   4.009126
   20  C  1 XX    0.179617   0.120206  -0.009645   0.085682  -0.276146
   21  C  1 YY    0.141081  -0.559250  -0.003114  -0.206484   0.125972
   22  C  1 ZZ   -0.320698   0.439045   0.012759   0.120802   0.150174
   23  C  1 XY    0.001211  -0.007306  -0.178209   0.018954  -0.010050
   24  C  1 XZ    0.002128  -0.012868  -0.014576   0.010402  -0.006136
   25  C  1 YZ    0.447852  -0.195427   0.076017   0.858841   0.211096
   26  C  2  S   -0.045695  -0.017611  -0.000356  -0.004347   0.034218
   27  C  2  S   -0.197981  -0.048647  -0.001906  -0.000536   0.163060
   28  C  2  S    1.618704  -0.511815   0.004719  -0.350857  -0.649387
   29  C  2  X    0.006502  -0.009516  -0.040083  -0.002067   0.005457
   30  C  2  Y   -0.039042   0.063478   0.014968   0.287917  -0.039089
   31  C  2  Z   -0.109801  -0.006262  -0.004311   0.021371  -0.250154
   32  C  2  X    0.002501  -0.027176  -0.234083  -0.015388   0.006298
   33  C  2  Y   -0.151725   0.793584   0.031082   0.385017   0.421903
   34  C  2  Z   -1.207450   1.125047   0.065305   0.782051   1.583545
   35  C  2 XX   -0.016305   0.012196  -0.000787   0.014628   0.029359
   36  C  2 YY    0.011604   0.003506   0.000651  -0.021612   0.021744
   37  C  2 ZZ    0.004701  -0.015702   0.000136   0.006983  -0.051104
   38  C  2 XY   -0.001813   0.001526   0.022000  -0.000442  -0.001350
   39  C  2 XZ    0.000143   0.001010   0.009185  -0.000153  -0.000591
   40  C  2 YZ    0.017954  -0.052536   0.003761   0.010178  -0.007564
   41  C  2  S   18.506016  20.955504   0.767530  10.995604  -3.993228
   42  C  2  X    0.062061   0.006110  -0.166408  -0.005346  -0.022059
   43  C  2  Y   -1.679038  -1.008512   0.012278   1.602667   1.299905
   44  C  2  Z   -6.134956  -5.242805  -0.270313  -2.415524   1.598781
   45  C  2 XX   -0.185562  -0.163161   0.012296  -0.004191   0.186886
   46  C  2 YY   -0.167120   0.200588   0.016310   0.200315   0.183702
   47  C  2 ZZ    0.352682  -0.037428  -0.028605  -0.196124  -0.370589
   48  C  2 XY   -0.010301   0.004314   0.255609  -0.025604   0.006087
   49  C  2 XZ    0.001235  -0.023241  -0.111441   0.008249  -0.001862
   50  C  2 YZ    0.337491   0.276894   0.040908   0.612738   0.334110
   51  H  3  S    0.177286  -0.180263   0.006542  -0.091674  -0.024188
   52  H  3  S   -0.269900  -3.015086  -0.204811  -2.917367  -2.154230
   53  H  3  X   -0.000001  -0.000516  -0.004104   0.000583  -0.000311
   54  H  3  Y    0.013074  -0.002311   0.000701  -0.003126   0.002475
   55  H  3  Z    0.004974  -0.007254   0.000137  -0.004592  -0.012329
   56  H  3  S    3.141764   1.721854   0.164723   0.162194  -2.681822
   57  H  3  X   -0.029438  -0.007516   0.521973  -0.036706  -0.071029
   58  H  3  Y    0.598235   0.624604   0.037795  -0.240159   0.713987
   59  H  3  Z    0.158408  -0.197890   0.062147   0.216391   0.240931
   60  H  4  S   -0.159231   0.216385  -0.012037   0.014159   0.017220
   61  H  4  S   -0.601717   3.604324  -0.098458  -0.775494   1.186520
   62  H  4  X    0.000020   0.000328  -0.000679   0.000359   0.000056
   63  H  4  Y    0.019857   0.001713   0.001163  -0.000030   0.015445
   64  H  4  Z    0.022184  -0.001622   0.002311   0.024493  -0.008892
   65  H  4  S   -2.006812   0.916705  -0.112970  -0.456383   0.906392
   66  H  4  X    0.017232  -0.005546  -0.731538   0.065269  -0.023855
   67  H  4  Y    0.135286   0.194825   0.009289  -0.338909   0.592032
   68  H  4  Z    0.221741   0.132286   0.051149   0.418129  -0.845139
   69  H  5  S    0.029470  -0.054684   0.012607   0.155945   0.047189
   70  H  5  S    1.539243   1.084183   0.246570   2.738021   1.920244
   71  H  5  X   -0.000377   0.000283   0.003158  -0.000116   0.000038
   72  H  5  Y   -0.015766   0.002032   0.000460   0.016379  -0.012607
   73  H  5  Z   -0.007801   0.016125  -0.002538  -0.017812  -0.017527
   74  H  5  S   -1.438915  -3.092194  -0.051417   0.009622   2.702466
   75  H  5  X   -0.029771   0.021969   0.832001  -0.061499  -0.005033
   76  H  5  Y   -0.471154  -0.050117  -0.046890  -0.029926  -0.833067
   77  H  5  Z   -0.035378   0.605827  -0.039915  -0.523786  -0.864472

                     26         27         28         29         30
                    0.3082     0.3151     0.3553     0.3770     0.4045
                     A          A          A          A          A   
    1  C  1  S   -0.005492  -0.029929  -0.000200  -0.019667   0.040280
    2  C  1  S   -0.024185  -0.126408  -0.000904  -0.058783  -0.017006
    3  C  1  S    0.232098   1.414946  -0.001472   1.771203  -2.130090
    4  C  1  X   -0.056983   0.014051  -0.246607   0.000515  -0.002037
    5  C  1  Y   -0.025918  -0.137826   0.004025   0.279852   0.054987
    6  C  1  Z   -0.047688  -0.247937  -0.000018  -0.076107  -0.000261
    7  C  1  X   -0.341206   0.049170  -0.969368   0.035651  -0.017768
    8  C  1  Y    0.069787   0.210436   0.023789   3.093109   0.299952
    9  C  1  Z    0.480948   2.245537  -0.051050   1.724595  -1.809861
   10  C  1 XX   -0.005417  -0.026366  -0.000168  -0.013438   0.018397
   11  C  1 YY   -0.002438   0.001760   0.000347   0.006340   0.008423
   12  C  1 ZZ    0.007855   0.024605  -0.000180   0.007098  -0.026821
   13  C  1 XY   -0.034294   0.005959   0.011022  -0.000416  -0.000652
   14  C  1 XZ   -0.017925   0.003238  -0.029611  -0.000416  -0.000518
   15  C  1 YZ   -0.004237  -0.022888  -0.000528  -0.050491  -0.009977
   16  C  1  S    1.418619   5.076449   0.042351   0.096501  -6.272224
   17  C  1  X   -0.099372   0.012647  -1.113100   0.056781  -0.017951
   18  C  1  Y   -0.722076  -3.549198   0.024251   4.839098   1.583882
   19  C  1  Z    0.489455   1.443818   0.012223  -0.071931  -1.788253
   20  C  1 XX   -0.029944  -0.077161   0.005700  -0.075231   0.529519
   21  C  1 YY   -0.102626  -0.547820   0.009556  -0.335186   0.610479
   22  C  1 ZZ    0.132570   0.624981  -0.015256   0.410417  -1.139997
   23  C  1 XY    0.509471  -0.097746  -0.225927   0.001588   0.031237
   24  C  1 XZ   -0.000379  -0.012554   0.076748   0.013835   0.005087
   25  C  1 YZ    0.189698   1.038551   0.015907   0.316681   0.270714
   26  C  2  S    0.006563   0.026837  -0.000251   0.010288   0.032371
   27  C  2  S    0.026252   0.106490  -0.000419   0.028135  -0.012535
   28  C  2  S   -0.344955  -1.511539   0.028000  -0.552418  -0.276278
   29  C  2  X   -0.110352   0.024479   0.044139  -0.000755   0.000835
   30  C  2  Y    0.004982   0.033914  -0.003940   0.034727  -0.203403
   31  C  2  Z   -0.004728   0.020262   0.000232  -0.018002   0.034686
   32  C  2  X   -0.626866   0.120076   0.445855  -0.046234   0.049026
   33  C  2  Y   -0.105486  -0.491215  -0.042477   0.174115  -2.265080
   34  C  2  Z    0.581011   2.933759  -0.046387   2.011206  -2.951797
   35  C  2 XX    0.004665   0.027998   0.000336   0.007255   0.005598
   36  C  2 YY    0.011492   0.050490  -0.000451   0.011095  -0.021190
   37  C  2 ZZ   -0.016157  -0.078488   0.000115  -0.018351   0.015593
   38  C  2 XY    0.034792  -0.006805  -0.010192   0.000000   0.001545
   39  C  2 XZ    0.024414  -0.003562   0.015235  -0.000078   0.000391
   40  C  2 YZ   -0.003844  -0.020787  -0.000658   0.006189  -0.007431
   41  C  2  S   -1.148080  -4.074258  -0.080286   0.614893   0.714742
   42  C  2  X   -0.468012   0.040295   0.535578  -0.032477   0.061732
   43  C  2  Y    0.548167   2.585974  -0.025580  -0.625960  -2.752751
   44  C  2  Z    0.849299   3.843163   0.017541   0.606597  -1.905884
   45  C  2 XX    0.070373   0.349567   0.000838   0.144795   0.900098
   46  C  2 YY    0.058742   0.373704  -0.012506   0.769139  -0.962705
   47  C  2 ZZ   -0.129114  -0.723272   0.011668  -0.913934   0.062607
   48  C  2 XY   -0.357898   0.064480  -0.180705  -0.009548   0.045568
   49  C  2 XZ   -0.165596   0.008633   0.326952   0.005948   0.003092
   50  C  2 YZ    0.208223   1.132724   0.012498   0.725741   0.123258
   51  H  3  S   -0.009059  -0.019646   0.000387   0.053846  -0.034958
   52  H  3  S   -0.576027  -2.897586   0.085524  -3.271766   6.788987
   53  H  3  X    0.004862  -0.000548   0.000117   0.000011   0.000001
   54  H  3  Y   -0.000263  -0.000605  -0.000080   0.000443   0.002006
   55  H  3  Z   -0.006920  -0.033899  -0.000059  -0.009601   0.008871
   56  H  3  S   -0.677644  -2.825770  -0.000447  -0.567106   3.008384
   57  H  3  X    1.491113  -0.314079  -0.382626  -0.025915   0.073749
   58  H  3  Y    0.232425   1.014644  -0.016967   0.478268  -1.430352
   59  H  3  Z   -0.199063  -1.054295  -0.019112   0.741851  -0.885705
   60  H  4  S   -0.016130  -0.049706   0.000993   0.026388   0.039211
   61  H  4  S   -0.065850  -0.574638  -0.048695   4.301368   0.155996
   62  H  4  X    0.005044  -0.000506  -0.011955   0.000056  -0.000526
   63  H  4  Y    0.000542  -0.001086   0.000160   0.005065   0.003894
   64  H  4  Z    0.000495   0.004103   0.000243   0.002896   0.000776
   65  H  4  S   -0.243175  -1.302756   0.004496   4.139900   0.207541
   66  H  4  X    1.265058  -0.242705   0.719614   0.027928   0.052605
   67  H  4  Y    0.069425   0.133864  -0.039400  -0.100331  -0.294181
   68  H  4  Z    0.127607   0.771643  -0.006168   1.548745  -0.434498
   69  H  5  S    0.004108   0.045189   0.001528   0.008478   0.021697
   70  H  5  S    0.571634   3.273596  -0.014311  -2.669670   0.521670
   71  H  5  X   -0.006344   0.001271  -0.010046  -0.000039   0.000153
   72  H  5  Y    0.000670   0.008317   0.000464   0.014465   0.000553
   73  H  5  Z   -0.006314  -0.032231  -0.000196  -0.018185   0.001645
   74  H  5  S    0.794343   3.584898   0.008026  -3.854536  -0.955784
   75  H  5  X   -0.459145   0.072031   1.620064  -0.020929  -0.029433
   76  H  5  Y   -0.110659  -0.534692  -0.014361  -0.400784  -0.217708
   77  H  5  Z    0.047515   0.408248  -0.015481  -0.910812  -0.196975

                     31         32         33         34         35
                    0.4382     0.4435     0.4482     0.4763     0.4833
                     A          A          A          A          A   
    1  C  1  S    0.064978   0.012517   0.001772   0.021986  -0.005468
    2  C  1  S    0.031279  -0.049427  -0.002463  -0.025761   0.027804
    3  C  1  S   -4.190080   0.820128   0.163960  -2.185673   0.484079
    4  C  1  X    0.003884  -0.048922   0.245109   0.015124   0.042957
    5  C  1  Y    0.026589  -0.062074  -0.006131  -0.133631  -0.050788
    6  C  1  Z    0.081689  -0.002601   0.016567  -0.011547   0.053346
    7  C  1  X    0.020635  -0.282419   1.795501   0.076427   0.288291
    8  C  1  Y   -0.619327   1.187843   0.544947  -3.593170   0.826318
    9  C  1  Z    5.906237   3.741885   0.648508  -0.785715   1.027796
   10  C  1 XX    0.017891  -0.008572  -0.000028  -0.012894   0.001002
   11  C  1 YY   -0.026586  -0.005149  -0.001927   0.012851  -0.003633
   12  C  1 ZZ    0.008695   0.013720   0.001955   0.000044   0.002631
   13  C  1 XY   -0.000207  -0.001001   0.001990  -0.000070   0.004692
   14  C  1 XZ    0.000247   0.000638  -0.013830  -0.002534   0.030664
   15  C  1 YZ    0.020177   0.011924  -0.001696  -0.012176  -0.015833
   16  C  1  S   -6.819044  -3.902846  -1.312095   3.572042  -0.796761
   17  C  1  X   -0.000063  -0.147777   1.133434   0.060593  -0.162650
   18  C  1  Y   -0.599161   1.616278   0.436171  -0.775798   0.393342
   19  C  1  Z    1.105631   0.228761  -0.087936   0.785351  -0.024800
   20  C  1 XX    0.581340   0.259354   0.082373  -0.457293   0.026093
   21  C  1 YY   -1.944705  -0.768170  -0.114662   0.491661  -0.305519
   22  C  1 ZZ    1.363365   0.508816   0.032288  -0.034368   0.279426
   23  C  1 XY   -0.041941   0.024339  -0.261298  -0.017092   0.300896
   24  C  1 XZ   -0.007036   0.096473  -0.112137   0.067535  -1.407430
   25  C  1 YZ    0.623417  -2.604135  -0.421981  -0.139971  -0.462540
   26  C  2  S    0.062438   0.028769   0.001134   0.053680   0.010987
   27  C  2  S   -0.000126  -0.023176  -0.011164   0.013969  -0.020208
   28  C  2  S   -6.444460  -2.502771  -0.189324  -4.288526  -1.621412
   29  C  2  X    0.003041   0.024282  -0.252774  -0.021101   0.250064
   30  C  2  Y    0.127429   0.065348   0.009596  -0.136473  -0.006477
   31  C  2  Z    0.029320  -0.083378   0.004223  -0.177109   0.030493
   32  C  2  X    0.020981  -0.017355  -0.698335  -0.018875   1.513843
   33  C  2  Y   -0.729330   3.170267   0.501385  -1.450413   0.046736
   34  C  2  Z    3.067294   2.768732   0.558907  -2.364951   0.930390
   35  C  2 XX    0.033228  -0.000579  -0.000802  -0.010799  -0.000611
   36  C  2 YY   -0.012858   0.026643   0.004480   0.016580   0.004671
   37  C  2 ZZ   -0.020370  -0.026064  -0.003678  -0.005781  -0.004060
   38  C  2 XY    0.000616  -0.001572   0.004261  -0.000381  -0.004329
   39  C  2 XZ    0.000277   0.002208  -0.014944  -0.002179  -0.001339
   40  C  2 YZ   -0.020902   0.053690   0.009536   0.013402   0.012070
   41  C  2  S   -0.740908   1.303080   0.870939  -4.660056   0.489621
   42  C  2  X    0.012217   0.123833  -1.172990  -0.068269   0.528666
   43  C  2  Y    0.507484   0.037623  -0.049728  -0.240952  -0.094331
   44  C  2  Z   -0.228201  -0.130781  -0.138037   0.142434  -0.068400
   45  C  2 XX    0.039143   0.221241   0.050216  -0.141637  -0.084072
   46  C  2 YY    0.504212   1.361812   0.138414   0.101870  -0.046241
   47  C  2 ZZ   -0.543355  -1.583053  -0.188630   0.039768   0.130313
   48  C  2 XY    0.014133  -0.007463  -0.662509  -0.043705   0.960311
   49  C  2 XZ    0.014843  -0.189433   1.036602   0.099123   0.270054
   50  C  2 YZ   -0.371806  -0.832708  -0.033295  -0.361898   0.239118
   51  H  3  S   -0.094397   0.182496   0.033499   0.129615   0.062610
   52  H  3  S    1.211743  -3.123467  -0.801705   6.431797   0.020402
   53  H  3  X    0.000148   0.000959  -0.017123  -0.001915   0.021746
   54  H  3  Y   -0.018928   0.012899   0.000968   0.029326   0.002643
   55  H  3  Z   -0.020815   0.024845   0.004929   0.003405   0.009577
   56  H  3  S   -0.037944  -0.196417  -0.033740   0.890537   0.047249
   57  H  3  X   -0.013309  -0.025987   0.743697   0.125077  -1.368091
   58  H  3  Y   -0.412659  -0.203262   0.152813  -3.227181  -0.031927
   59  H  3  Z   -0.102008   1.448601   0.169129  -0.977140  -0.587272
   60  H  4  S   -0.043484  -0.080161  -0.022211   0.016232  -0.086626
   61  H  4  S    6.137625   9.242608   2.025782  -5.709886   2.095423
   62  H  4  X    0.000134  -0.002361   0.016700   0.001412  -0.004642
   63  H  4  Y    0.007474  -0.017884  -0.002956   0.003844   0.002569
   64  H  4  Z   -0.005872  -0.012279   0.000586  -0.000742   0.013815
   65  H  4  S    1.410408   1.876321   0.425997  -0.874201   0.227545
   66  H  4  X   -0.002713   0.271713  -1.269708  -0.087696  -0.143079
   67  H  4  Y    1.108068   2.965383   0.601564  -1.578051   0.401639
   68  H  4  Z    1.835033   0.125661   0.061657  -1.206807   0.075867
   69  H  5  S   -0.178484   0.088304   0.017260   0.111390   0.027771
   70  H  5  S    9.089762  -2.501435  -0.786045   4.626150  -0.859174
   71  H  5  X    0.000244  -0.002854   0.007845   0.000245   0.012989
   72  H  5  Y   -0.006914  -0.005585  -0.001076   0.022580   0.002589
   73  H  5  Z    0.007234  -0.003844  -0.001944   0.002997  -0.004655
   74  H  5  S    1.541691  -0.521268  -0.210569   0.807454  -0.162037
   75  H  5  X   -0.013806   0.153383  -0.421809   0.006265  -1.109432
   76  H  5  Y   -2.104318   1.463328   0.370307  -2.530155   0.273039
   77  H  5  Z    1.136216   0.979349   0.021305   1.421215  -0.013525

                     36         37         38         39         40
                    0.4874     0.4931     0.5051     0.5566     0.5628
                     A          A          A          A          A   
    1  C  1  S    0.009721   0.104333  -0.025229   0.077763   0.014643
    2  C  1  S   -0.103478  -0.005260  -0.028464   0.023578   0.000702
    3  C  1  S   -1.493866  -8.295084   4.313333  -8.322740  -1.408231
    4  C  1  X    0.027058  -0.001085  -0.000464  -0.000173  -0.072055
    5  C  1  Y    0.167401   0.007195  -0.109319  -0.060778  -0.006447
    6  C  1  Z   -0.242235   0.324264  -0.088598  -0.140567  -0.029612
    7  C  1  X    0.238776   0.001687   0.036683   0.178563  -1.356673
    8  C  1  Y   -0.261151  -0.903448  -7.077767  -0.129459  -0.155027
    9  C  1  Z   -2.683861  -2.632988   1.409225  -1.563348  -0.753537
   10  C  1 XX   -0.010885   0.008519  -0.006278   0.027049   0.003782
   11  C  1 YY    0.012589   0.031685  -0.008791  -0.008084  -0.000636
   12  C  1 ZZ   -0.001705  -0.040204   0.015069  -0.018966  -0.003146
   13  C  1 XY    0.002250   0.000813   0.000399   0.000091  -0.002718
   14  C  1 XZ    0.007017   0.001895   0.001404  -0.009627   0.054861
   15  C  1 YZ    0.053599  -0.002180   0.013532  -0.027834  -0.003212
   16  C  1  S    4.671483  -5.003614  -4.827341 -14.481938  -2.914873
   17  C  1  X   -0.002291  -0.021066  -0.008512   0.026305  -0.224835
   18  C  1  Y   -0.085693  -0.564969  -1.875653   0.901468   0.190724
   19  C  1  Z    0.392764  -0.189146  -0.986657  -4.782075  -0.966984
   20  C  1 XX   -0.321734   0.299114   0.561772  -0.049274   0.042391
   21  C  1 YY    0.438415   2.650606  -0.669188  -1.808478  -0.151503
   22  C  1 ZZ   -0.116680  -2.949720   0.107416   1.857752   0.109112
   23  C  1 XY    0.084309   0.056079   0.076946   0.185363  -1.603362
   24  C  1 XZ   -0.354476  -0.093538  -0.102843   0.324625  -2.139075
   25  C  1 YZ    0.729241   0.386024   0.272379   0.202410   0.073594
   26  C  2  S   -0.002441  -0.087697  -0.031047  -0.050529  -0.011782
   27  C  2  S    0.092588  -0.081291  -0.009222   0.133177   0.020144
   28  C  2  S    1.855311  10.057395   2.779243   2.865650   0.952242
   29  C  2  X    0.045947   0.011576   0.001996  -0.059650   0.312555
   30  C  2  Y    0.070032  -0.019713  -0.017282   0.002319  -0.001410
   31  C  2  Z   -0.197014   0.175146  -0.002444  -0.078920  -0.020701
   32  C  2  X    0.346565   0.059479   0.045815  -0.224455   1.408498
   33  C  2  Y   -0.623711   1.080408   3.271114   0.597044   0.006134
   34  C  2  Z   -2.948607  -3.052116   2.549936  -1.431661  -0.687870
   35  C  2 XX    0.012616  -0.049451   0.003046   0.010715   0.000278
   36  C  2 YY   -0.013670   0.004369   0.006732  -0.027257  -0.003879
   37  C  2 ZZ    0.001054   0.045082  -0.009778   0.016542   0.003601
   38  C  2 XY    0.001400  -0.000388  -0.000516   0.005047  -0.027052
   39  C  2 XZ   -0.001567  -0.000402  -0.001154  -0.003399   0.032904
   40  C  2 YZ   -0.030839   0.006660   0.009641  -0.014129  -0.001548
   41  C  2  S   -4.527350   5.236854   5.823739  15.446509   3.105645
   42  C  2  X    0.102554   0.021825  -0.003524  -0.042852   0.386761
   43  C  2  Y   -0.262005   0.450665   0.959197  -1.162724  -0.243338
   44  C  2  Z    0.391349  -0.706346  -0.716851  -3.749187  -0.814864
   45  C  2 XX    0.240033  -0.331514  -0.025931  -0.370183  -0.081709
   46  C  2 YY    0.302388  -0.526794   1.478039  -0.933291  -0.162301
   47  C  2 ZZ   -0.542420   0.858307  -1.452108   1.303474   0.244009
   48  C  2 XY    0.215146   0.043472   0.052570   0.006076  -0.055414
   49  C  2 XZ    0.198228   0.002458   0.084876   0.246139  -1.882001
   50  C  2 YZ   -0.934540   0.222902  -0.344166   1.037575   0.142423
   51  H  3  S   -0.176898  -0.028856   0.045249  -0.152698  -0.018209
   52  H  3  S    2.649556  -3.833595  -7.349463  -2.989344  -0.273856
   53  H  3  X    0.005227   0.001816   0.001338  -0.000833   0.001613
[...]
 II,JST,KST,LST =  2  1  1  1 NREC =         1 INTLOC =    1
 II,JST,KST,LST =  3  1  1  1 NREC =         1 INTLOC =    1
 II,JST,KST,LST =  4  1  1  1 NREC =         1 INTLOC =    1
 II,JST,KST,LST =  5  1  1  1 NREC =         1 INTLOC =    1
 II,JST,KST,LST =  6  1  1  1 NREC =         1 INTLOC =    1
 II,JST,KST,LST =  7  1  1  1 NREC =         1 INTLOC =    4
 II,JST,KST,LST =  8  1  1  1 NREC =         1 INTLOC =   49
 II,JST,KST,LST =  9  1  1  1 NREC =         1 INTLOC =   49
 II,JST,KST,LST = 10  1  1  1 NREC =         1 INTLOC =  484
 II,JST,KST,LST = 11  1  1  1 NREC =         1 INTLOC =  484
 II,JST,KST,LST = 12  1  1  1 NREC =         1 INTLOC =  522
 II,JST,KST,LST = 13  1  1  1 NREC =         1 INTLOC = 1848
 II,JST,KST,LST = 14  1  1  1 NREC =         1 INTLOC = 2760
 II,JST,KST,LST = 15  1  1  1 NREC =         1 INTLOC = 2760
 II,JST,KST,LST = 16  1  1  1 NREC =         1 INTLOC = 2760
 II,JST,KST,LST = 17  1  1  1 NREC =         1 INTLOC = 2760
 II,JST,KST,LST = 18  1  1  1 NREC =         1 INTLOC = 3774
 II,JST,KST,LST = 19  1  1  1 NREC =         1 INTLOC = 9991
 II,JST,KST,LST = 20  1  1  1 NREC =         1 INTLOC = 9991
 II,JST,KST,LST = 21  1  1  1 NREC =         3 INTLOC = 2682
 II,JST,KST,LST = 22  1  1  1 NREC =         3 INTLOC = 2682
 II,JST,KST,LST = 23  1  1  1 NREC =         3 INTLOC =10651
 II,JST,KST,LST = 24  1  1  1 NREC =         4 INTLOC = 7675
 II,JST,KST,LST = 25  1  1  1 NREC =         4 INTLOC =11705
 II,JST,KST,LST = 26  1  1  1 NREC =         5 INTLOC =  713
 II,JST,KST,LST = 27  1  1  1 NREC =         6 INTLOC = 5096
 II,JST,KST,LST = 28  1  1  1 NREC =         6 INTLOC = 5096
 II,JST,KST,LST = 29  1  1  1 NREC =         9 INTLOC = 9090
 II,JST,KST,LST = 30  1  1  1 NREC =         9 INTLOC = 9090
 II,JST,KST,LST = 31  1  1  1 NREC =        10 INTLOC = 8881
 II,JST,KST,LST = 32  1  1  1 NREC =        13 INTLOC =  372
 II,JST,KST,LST = 33  1  1  1 NREC =        14 INTLOC = 5465
 II,JST,KST,LST = 34  1  1  1 NREC =        17 INTLOC =13730
 II,JST,KST,LST = 35  1  1  1 NREC =        18 INTLOC = 4916
 II,JST,KST,LST = 36  1  1  1 NREC =        19 INTLOC = 3992
 II,JST,KST,LST = 37  1  1  1 NREC =        21 INTLOC = 1874
 II,JST,KST,LST = 38  1  1  1 NREC =        23 INTLOC = 4681
 II,JST,KST,LST = 39  1  1  1 NREC =        26 INTLOC =13514
 II,JST,KST,LST = 40  1  1  1 NREC =        38 INTLOC =13745
 II,JST,KST,LST = 41  1  1  1 NREC =        38 INTLOC =13745
 II,JST,KST,LST = 42  1  1  1 NREC =        43 INTLOC =10677
 II,JST,KST,LST = 43  1  1  1 NREC =        49 INTLOC = 4754
 II,JST,KST,LST = 44  1  1  1 NREC =        50 INTLOC = 3333
 II,JST,KST,LST = 45  1  1  1 NREC =        52 INTLOC =11305
 II,JST,KST,LST = 46  1  1  1 NREC =        55 INTLOC = 3204
 II,JST,KST,LST = 47  1  1  1 NREC =        59 INTLOC = 7740
 II,JST,KST,LST = 48  1  1  1 NREC =        82 INTLOC = 3503
 II,JST,KST,LST = 49  1  1  1 NREC =        88 INTLOC =11170
 II,JST,KST,LST = 50  1  1  1 NREC =        95 INTLOC = 1129
 II,JST,KST,LST = 51  1  1  1 NREC =       103 INTLOC = 8368
 II,JST,KST,LST = 52  1  1  1 NREC =       145 INTLOC = 3420
 II,JST,KST,LST = 53  1  1  1 NREC =       145 INTLOC = 3420
 II,JST,KST,LST = 54  1  1  1 NREC =       152 INTLOC =10449
 II,JST,KST,LST = 55  1  1  1 NREC =       160 INTLOC = 6491
 II,JST,KST,LST = 56  1  1  1 NREC =       169 INTLOC =14152
 II,JST,KST,LST = 57  1  1  1 NREC =       175 INTLOC =14253
 II,JST,KST,LST = 58  1  1  1 NREC =       179 INTLOC =12576
 II,JST,KST,LST = 59  1  1  1 NREC =       185 INTLOC = 3526
 II,JST,KST,LST = 60  1  1  1 NREC =       203 INTLOC = 1911
 II,JST,KST,LST = 61  1  1  1 NREC =       208 INTLOC =  677
 II,JST,KST,LST = 62  1  1  1 NREC =       230 INTLOC = 7305
 II,JST,KST,LST = 63  1  1  1 NREC =       235 INTLOC =12855
 II,JST,KST,LST = 64  1  1  1 NREC =       238 INTLOC =10765
 II,JST,KST,LST = 65  1  1  1 NREC =       249 INTLOC =10442
 II,JST,KST,LST = 66  1  1  1 NREC =       262 INTLOC = 7649
 SCHWARZ INEQUALITY TEST SKIPPED       34140 INTEGRAL BLOCKS.
 TOTAL NUMBER OF NONZERO TWO-ELECTRON INTEGRALS =            67117863
       4485 INTEGRAL RECORDS WERE STORED ON DISK FILE  8.
  ...... END OF TWO-ELECTRON INTEGRALS .....
 CPU     0: STEP CPU TIME=     0.27 TOTAL CPU TIME=         23.5 (      0.4 MIN)
 TOTAL WALL CLOCK TIME=         24.1 SECONDS, CPU UTILIZATION IS    97.31%

          ---------------------------------------------
          MONOMER ELECTROSTATIC INTERACTION (OWN BASIS)
          ---------------------------------------------

          -------------
          GUESS OPTIONS
          -------------
          GUESS =MOSAVED           NORB  =       0          NORDER=       0
          MIX   =       F          PRTMO =       F          PUNMO =       F
          TOLZ  = 1.0E-08          TOLE  = 1.0E-05
          SYMDEN=       F          PURIFY=       F

 INITIAL GUESS ORBITALS GENERATED BY MOSAVED  ROUTINE.

 STATISTICS FOR GENERATION OF SYMMETRY ORBITAL -Q- MATRIX
 NUMBER OF CARTESIAN ATOMIC ORBITALS=        154
 NUMBER OF SPHERICAL CONTAMINANTS DROPPED=     8
 NUMBER OF LINEARLY DEPENDENT MOS DROPPED=     0
 TOTAL NUMBER OF MOS IN VARIATION SPACE=     146
 ...... END OF INITIAL ORBITAL SELECTION ......
 CPU     0: STEP CPU TIME=     0.01 TOTAL CPU TIME=         23.5 (      0.4 MIN)
 TOTAL WALL CLOCK TIME=         24.1 SECONDS, CPU UTILIZATION IS    97.31%

          ---------------------------
                  UHF SCF CALCULATION
          ---------------------------

 FINAL UHF ENERGY IS     -155.3032462981 AFTER   1 ITERATIONS
 ...... END OF UHF CALCULATION ......
 CPU     0: STEP CPU TIME=     0.08 TOTAL CPU TIME=         23.6 (      0.4 MIN)
 TOTAL WALL CLOCK TIME=         24.2 SECONDS, CPU UTILIZATION IS    97.26%

          -------------
          GUESS OPTIONS
          -------------
          GUESS =MOSAVED           NORB  =       0          NORDER=       0
          MIX   =       F          PRTMO =       F          PUNMO =       F
          TOLZ  = 1.0E-08          TOLE  = 1.0E-05
          SYMDEN=       F          PURIFY=       F

 INITIAL GUESS ORBITALS GENERATED BY MOSAVED  ROUTINE.

 STATISTICS FOR GENERATION OF SYMMETRY ORBITAL -Q- MATRIX
 NUMBER OF CARTESIAN ATOMIC ORBITALS=        154
 NUMBER OF SPHERICAL CONTAMINANTS DROPPED=     8
 NUMBER OF LINEARLY DEPENDENT MOS DROPPED=     0
 TOTAL NUMBER OF MOS IN VARIATION SPACE=     146
 ...... END OF INITIAL ORBITAL SELECTION ......
 CPU     0: STEP CPU TIME=     0.01 TOTAL CPU TIME=         23.6 (      0.4 MIN)
 TOTAL WALL CLOCK TIME=         24.2 SECONDS, CPU UTILIZATION IS    97.26%

          ---------------------------
                  UHF SCF CALCULATION
          ---------------------------

 DIRECT SCF CALCULATION, SCHWRZ=T   FDIFF=T
 SCHWARZ INEQUALITY OVERHEAD:     11935 INTEGRALS, T=        0.00

 FINAL UHF ENERGY IS     -332.0892249056 AFTER   1 ITERATIONS
 ...... END OF UHF CALCULATION ......
 CPU     0: STEP CPU TIME=     0.27 TOTAL CPU TIME=         23.8 (      0.4 MIN)
 TOTAL WALL CLOCK TIME=         24.5 SECONDS, CPU UTILIZATION IS    97.29%

 XEDA STEP ENERGY SUMMATION
 ETOT =       -155.30324630     ENUC =        103.34605465
 EEXCH=        -22.94767186

          --------------------------------------------------
          MONOMER EXCHANGE-REPULSION INTERACTION (OWN BASIS)
          --------------------------------------------------

          -------------
          GUESS OPTIONS
          -------------
          GUESS =MOSAVED           NORB  =       0          NORDER=       0
          MIX   =       F          PRTMO =       F          PUNMO =       F
          TOLZ  = 1.0E-08          TOLE  = 1.0E-05
          SYMDEN=       F          PURIFY=       F

 INITIAL GUESS ORBITALS GENERATED BY MOSAVED  ROUTINE.

 STATISTICS FOR GENERATION OF SYMMETRY ORBITAL -Q- MATRIX
 NUMBER OF CARTESIAN ATOMIC ORBITALS=        154
 NUMBER OF SPHERICAL CONTAMINANTS DROPPED=     8
 NUMBER OF LINEARLY DEPENDENT MOS DROPPED=     0
 TOTAL NUMBER OF MOS IN VARIATION SPACE=     146
 ...... END OF INITIAL ORBITAL SELECTION ......
 CPU     0: STEP CPU TIME=     0.01 TOTAL CPU TIME=         23.8 (      0.4 MIN)
 TOTAL WALL CLOCK TIME=         24.5 SECONDS, CPU UTILIZATION IS    97.29%

          ---------------------------
                  UHF SCF CALCULATION
          ---------------------------

 FINAL UHF ENERGY IS     -154.6266509249 AFTER   1 ITERATIONS
 ...... END OF UHF CALCULATION ......
 CPU     0: STEP CPU TIME=     0.08 TOTAL CPU TIME=         23.9 (      0.4 MIN)
 TOTAL WALL CLOCK TIME=         24.6 SECONDS, CPU UTILIZATION IS    97.24%

 XEDA STEP ENERGY SUMMATION
 ETOT =       -154.62665092     ENUC =        103.34605465

          ---------------------------------------------
          MONOMER ELECTROSTATIC INTERACTION (ALL BASIS)
          ---------------------------------------------

          -------------
          GUESS OPTIONS
          -------------
          GUESS =MOSAVED           NORB  =       0          NORDER=       0
          MIX   =       F          PRTMO =       F          PUNMO =       F
          TOLZ  = 1.0E-08          TOLE  = 1.0E-05
          SYMDEN=       F          PURIFY=       F

 INITIAL GUESS ORBITALS GENERATED BY MOSAVED  ROUTINE.

 STATISTICS FOR GENERATION OF SYMMETRY ORBITAL -Q- MATRIX
 NUMBER OF CARTESIAN ATOMIC ORBITALS=        154
 NUMBER OF SPHERICAL CONTAMINANTS DROPPED=     8
 NUMBER OF LINEARLY DEPENDENT MOS DROPPED=     0
 TOTAL NUMBER OF MOS IN VARIATION SPACE=     146
 ...... END OF INITIAL ORBITAL SELECTION ......
 CPU     0: STEP CPU TIME=     0.01 TOTAL CPU TIME=         23.9 (      0.4 MIN)
 TOTAL WALL CLOCK TIME=         24.6 SECONDS, CPU UTILIZATION IS    97.24%

          ---------------------------
                  UHF SCF CALCULATION
          ---------------------------

 FINAL UHF ENERGY IS     -155.3099153188 AFTER   1 ITERATIONS
 ...... END OF UHF CALCULATION ......
 CPU     0: STEP CPU TIME=     0.08 TOTAL CPU TIME=         24.0 (      0.4 MIN)
 TOTAL WALL CLOCK TIME=         24.7 SECONDS, CPU UTILIZATION IS    97.20%

          -------------
          GUESS OPTIONS
          -------------
          GUESS =MOSAVED           NORB  =       0          NORDER=       0
          MIX   =       F          PRTMO =       F          PUNMO =       F
          TOLZ  = 1.0E-08          TOLE  = 1.0E-05
          SYMDEN=       F          PURIFY=       F

 INITIAL GUESS ORBITALS GENERATED BY MOSAVED  ROUTINE.

 STATISTICS FOR GENERATION OF SYMMETRY ORBITAL -Q- MATRIX
 NUMBER OF CARTESIAN ATOMIC ORBITALS=        154
 NUMBER OF SPHERICAL CONTAMINANTS DROPPED=     8
 NUMBER OF LINEARLY DEPENDENT MOS DROPPED=     0
 TOTAL NUMBER OF MOS IN VARIATION SPACE=     146
 ...... END OF INITIAL ORBITAL SELECTION ......
 CPU     0: STEP CPU TIME=     0.01 TOTAL CPU TIME=         24.0 (      0.4 MIN)
 TOTAL WALL CLOCK TIME=         24.7 SECONDS, CPU UTILIZATION IS    97.20%

          ---------------------------
                  UHF SCF CALCULATION
          ---------------------------

 DIRECT SCF CALCULATION, SCHWRZ=T   FDIFF=T
 SCHWARZ INEQUALITY OVERHEAD:     11935 INTEGRALS, T=        0.00

 FINAL UHF ENERGY IS     -332.1118600028 AFTER   1 ITERATIONS
 ...... END OF UHF CALCULATION ......
 CPU     0: STEP CPU TIME=     0.27 TOTAL CPU TIME=         24.3 (      0.4 MIN)
 TOTAL WALL CLOCK TIME=         25.0 SECONDS, CPU UTILIZATION IS    97.20%

 XEDA STEP ENERGY SUMMATION
 ETOT =       -155.30991532     ENUC =        103.34605465
 EEXCH=        -22.94834453

          --------------------------------------------------
          MONOMER EXCHANGE-REPULSION INTERACTION (ALL BASIS)
          --------------------------------------------------

          -------------
          GUESS OPTIONS
          -------------
          GUESS =MOSAVED           NORB  =       0          NORDER=       0
          MIX   =       F          PRTMO =       F          PUNMO =       F
          TOLZ  = 1.0E-08          TOLE  = 1.0E-05
          SYMDEN=       F          PURIFY=       F

 INITIAL GUESS ORBITALS GENERATED BY MOSAVED  ROUTINE.

 STATISTICS FOR GENERATION OF SYMMETRY ORBITAL -Q- MATRIX
 NUMBER OF CARTESIAN ATOMIC ORBITALS=        154
 NUMBER OF SPHERICAL CONTAMINANTS DROPPED=     8
 NUMBER OF LINEARLY DEPENDENT MOS DROPPED=     0
 TOTAL NUMBER OF MOS IN VARIATION SPACE=     146
 ...... END OF INITIAL ORBITAL SELECTION ......
 CPU     0: STEP CPU TIME=     0.01 TOTAL CPU TIME=         24.3 (      0.4 MIN)
 TOTAL WALL CLOCK TIME=         25.0 SECONDS, CPU UTILIZATION IS    97.20%

          ---------------------------
                  UHF SCF CALCULATION
          ---------------------------

 FINAL UHF ENERGY IS     -154.6314813008 AFTER   1 ITERATIONS
 ...... END OF UHF CALCULATION ......
 CPU     0: STEP CPU TIME=     0.08 TOTAL CPU TIME=         24.4 (      0.4 MIN)
 TOTAL WALL CLOCK TIME=         25.1 SECONDS, CPU UTILIZATION IS    97.14%

 XEDA STEP ENERGY SUMMATION
 ETOT =       -154.63148130     ENUC =        103.34605465

          --------------------------------
          RESULTS OF INTERACTION ANALYSIS
          --------------------------------

     ENERGY TERMS
     T   ELECTRON KINETIC AND COULOMB POTENTIAL
     X   E-E EXCHANGE COMBINE WITH DIAGNANAL VALUE
     N   NUCLEUS-NUCLEUS REPULSION ENERGY

 --------------
 MONOMER ENERGY
 --------------

 MONOMER    1

                   OWN BASIS           ALL BASIS

 T              -93.94210600        -93.94241288
 X              -11.31326926        -11.31352516
 N               27.87782726         27.87782726
 EC              -0.47434704         -0.47483973
 E              -77.85189503        -77.85295051

 MONOMER    2

                   OWN BASIS           ALL BASIS

 T              -93.94208463        -93.94239302
 X              -11.31327383        -11.31352391
 N               27.87780900         27.87780900
 EC              -0.47434230         -0.47485710
 E              -77.85189176        -77.85296502

 ------------------------------------------------------------
 SUPER MOLECULE ENERGY  USING NON-ANTISYMMETRIC WAVEFUNCTION
 (ELECTROSTATIC ENERGY: T N CHANGE)
 ------------------------------------------------------------

              FROM OWN BASIS      FROM ALL BASIS
 T             -235.70162909       -235.70762544
 X              -22.62654309        -22.62704907
 N              103.34605465        103.34605465
 E             -154.98211753       -154.98861986

 ----------------------------------------------------------------------
 SUPER MOLECULE ENERGY  USING ANTISYMMETRIC NONORTHONORMAL WAVEFUNCTION
 (EXCHANGE ENERGY: ONLY X CHANGES)
 ----------------------------------------------------------------------

              FROM OWN BASIS      FROM ALL BASIS
 T             -235.70162909       -235.70762544
 X              -22.94767186        -22.94834453
 N              103.34605465        103.34605465
 E             -155.30324630       -155.30991532

 -----------------------------------------------------------------------
 SUPER MOLECULE ENERGY  USING ANTISYMMETRIC AND ORTHONORMAL WAVEFUNCTION
 (REPULSION ENERGY: T X CHANGE)
 -----------------------------------------------------------------------

              FROM OWN BASIS      FROM ALL BASIS
 T+X           -257.97270557       -257.97753595
 N              103.34605465        103.34605465
 E             -154.62665092       -154.63148130

 ---------------------------------------------
 SUPER MOLECULE ENERGY  USING SCF WAVEFUNCTION
 (POLARIZATION ENERGY: T X CHANGE)
 ---------------------------------------------
 T+X           -258.25574248
 N              103.34605465
 EC              -0.98542636
 E             -155.89511420


                   *******************************
                   SUMMARY OF INTERACTION ENERGIES
                     XEDA IN XIAMEN UNIVERSITY    
                    - ZHEN TANG AND PEIFENG SU -  
                   *******************************


 -------------
 OWN BASIS SET                                       HARTREE          KCAL/MOL
 -------------
 ELECTROSTATIC ENERGY                  ES=         -0.227020           -142.46
 EXCHANGE ENERGY                       EX=         -0.321129           -201.51
 REPULSION ENERGY                     REP=          0.676595            424.57
 POLARIZATION ENERGY                  POL=         -0.283037           -177.61
 ELECTRON CORRELATION                CORR=         -0.036737            -23.05
 TOTAL INTERACTION ENERGY               E=         -0.191327           -120.06
  

 -------------
 ALL BASIS SET                                       HARTREE          KCAL/MOL
 -------------
 ELECTROSTATIC ENERGY                  ES=         -0.232401           -145.83
 EXCHANGE ENERGY                       EX=         -0.321295           -201.62
 REPULSION ENERGY                     REP=          0.678434            425.72
 POLARIZATION ENERGY                  POL=         -0.278207           -174.58
 ELECTRON CORRELATION                CORR=         -0.035730            -22.42
 TOTAL INTERACTION ENERGY               E=         -0.189199           -118.72
  

                     ***************************
                     END OF INTERACTION ANALYSIS
                     ***************************

              1301896  WORDS OF DYNAMIC MEMORY USED
 EXECUTION OF GAMESS TERMINATED NORMALLY 14:31:21 25-DEC-2023    
 DDI: 263640 bytes (0.3 MB / 0 MWords) used by master data server.

 ----------------------------------------
 CPU timing information for all processes
 ========================================
 0: 23.724 + 0.659 = 24.383
 1: 23.582 + 0.551 = 24.133
 2: 23.599 + 0.588 = 24.188
 3: 23.563 + 0.567 = 24.130
 4: 23.526 + 0.654 = 24.180
 5: 23.581 + 0.559 = 24.140
 6: 23.583 + 0.598 = 24.182
 7: 23.536 + 0.552 = 24.89
 8: 23.515 + 0.611 = 24.126
 9: 23.492 + 0.526 = 24.18
 10: 23.599 + 0.557 = 24.156
 11: 23.539 + 0.551 = 24.90
 12: 23.558 + 0.599 = 24.157
 13: 23.523 + 0.539 = 24.62
 14: 23.500 + 0.595 = 24.96
 15: 23.533 + 0.540 = 24.73
 ----------------------------------------
 ddikick.x: exited gracefully.
----- accounting info -----
Files used on the master node w013 were:
-rw-r--r-- 1 xacs0647 10000  2703863 Dec 25 14:31 /job_dir/12_1685735/12.dat
-rw-r--r-- 1 xacs0647 10000      243 Dec 25 14:31 /job_dir/12_1685735/12.err
-rw-r--r-- 1 xacs0647 10000      837 Dec 25 14:30 /job_dir/12_1685735/12.F05
-rw-r--r-- 1 xacs0647 10000 49144368 Dec 25 14:31 /job_dir/12_1685735/12.F08
-rw-r--r-- 1 xacs0647 10000 48604320 Dec 25 14:31 /job_dir/12_1685735/12.F08.001
-rw-r--r-- 1 xacs0647 10000 48964352 Dec 25 14:31 /job_dir/12_1685735/12.F08.002
-rw-r--r-- 1 xacs0647 10000 50404480 Dec 25 14:31 /job_dir/12_1685735/12.F08.003
-rw-r--r-- 1 xacs0647 10000 47704240 Dec 25 14:31 /job_dir/12_1685735/12.F08.004
-rw-r--r-- 1 xacs0647 10000 48784336 Dec 25 14:31 /job_dir/12_1685735/12.F08.005
-rw-r--r-- 1 xacs0647 10000 52924704 Dec 25 14:31 /job_dir/12_1685735/12.F08.006
-rw-r--r-- 1 xacs0647 10000 50404480 Dec 25 14:31 /job_dir/12_1685735/12.F08.007
-rw-r--r-- 1 xacs0647 10000 45904080 Dec 25 14:31 /job_dir/12_1685735/12.F08.008
-rw-r--r-- 1 xacs0647 10000 48424304 Dec 25 14:31 /job_dir/12_1685735/12.F08.009
-rw-r--r-- 1 xacs0647 10000 58145168 Dec 25 14:31 /job_dir/12_1685735/12.F08.010
-rw-r--r-- 1 xacs0647 10000 51844608 Dec 25 14:31 /job_dir/12_1685735/12.F08.011
-rw-r--r-- 1 xacs0647 10000 56164992 Dec 25 14:31 /job_dir/12_1685735/12.F08.012
-rw-r--r-- 1 xacs0647 10000 49324384 Dec 25 14:31 /job_dir/12_1685735/12.F08.013
-rw-r--r-- 1 xacs0647 10000 47884256 Dec 25 14:31 /job_dir/12_1685735/12.F08.014
-rw-r--r-- 1 xacs0647 10000 52744688 Dec 25 14:31 /job_dir/12_1685735/12.F08.015
-rw-r--r-- 1 xacs0647 10000  5758720 Dec 25 14:31 /job_dir/12_1685735/12.F10
-rw-r--r-- 1 xacs0647 10000      837 Dec 25 14:30 /job_dir/12_1685735/12.inp
-rw-r--r-- 1 xacs0647 10000  2403389 Dec 25 14:31 /job_dir/12_1685735/12.out
Mon Dec 25 14:31:24 CST 2023
0.092u 0.065s 0:28.27 0.5%	0+0k 0+40io 0pf+0w
