----- GAMESS execution script 'rungms' -----
This job is running on host w013
under operating system Linux at Mon Dec 25 14:30:56 CST 2023
Available scratch disk space (Kbyte units) at beginning of the job is
Filesystem              1K-blocks    Used Available Use% Mounted on
/dev/mapper/system-root 932514944 2661892 929853052   1% /
GAMESS temporary binary files will be written to /job_dir/13_1685736
GAMESS supplementary output files will be written to /job_dir/13_1685736
Copying input file ./13.inp to your run's scratch directory...
 
Assuming a single but multicore node.
 

 Distributed Data Interface kickoff program.
 Initiating 16 compute processes on 1 nodes to run the following command:
 /share/apps/xeda-apps/xeda-td/gamess.00.x 13 

          *******************************************************
          *                                                     *
          *          GAMESS VERSION = 30 SEP 2020 (R2)          *
          *                                                     *
          *              doi.org/10.1063/5.0005188              *
          *                                                     *
          **************** 64 BIT LINUX VERSION *****************

  GAMESS HAS BEEN MADE POSSIBLE WITH IMPORTANT CONTRIBUTIONS FROM
  THE FOLLOWING INDIVIDUALS (IN ALPHABETICAL ORDER):

     IVANA ADAMOVIC, CHRISTINE AIKENS, TOMOKO AKAMA,
     YURI ALEXEEV, YURIKO AOKI, POOJA ARORA, TOSHIO ASADA,
     ANDREY ASADCHEV, KIM K. BALDRIDGE, PRADIPTA BANDYOPADHYAY,
     MARIA BARYSZ, ROB BELL, JONATHAN BENTZ, COLLEEN BERTONI,
     JERRY A. BOATZ, BRETT BODE, KURT BRORSEN, KURT R. BRORSEN,
     LAIMUTIS BYTAUTAS, CALEB CARLIN, LAURA CARRINGTON,
     GALINA CHABAN, BENOIT CHAMPAGNE, WEI CHEN, MAHITO CHIBA,
     DAN CHIPMAN, CHEOL HO CHOI, TANNER CULPITT,
     DIPAYAN DATTA, PAUL DAY, ALBERT DEFUSCO,
     NUWAN DESILVA, J. EMILIANO DEUSTUA,
     TIM DUDLEY, MICHEL DUPUIS, STEVEN T. ELBERT,
     DMITRI FEDOROV, ALEX FINDLATER, GRAHAM FLETCHER,
     MARK FREITAG, CHRISTIAN FRIEDL, DAVID GARMER,
     IGOR S. GERASIMOV, KURT GLAESEMANN, MARK S. GORDON,
     JEFFREY GOUR, FENG LONG GU, EMILIE B. GUIDEZ,
     ANASTASIA GUNINA, SHARON HAMMES-SCHIFFER, MASATAKE HARUTA,
     KIMIHIKO HIRAO, YASUHIRO IKABATA, TZVETELIN IORDANOV,
     STEPHAN IRLE, KAZUYA ISHIMURA, JOE IVANIC, FRANK JENSEN,
     JAN H. JENSEN, VISVALDAS KAIRYS, MUNEAKI KAMIYA,
     MICHIO KATOUDA, NAOAKI KAWAKAMI, DAN KEMP, BERNARD KIRTMAN,
     KAZUO KITAURA, MARIUSZ KLOBUKOWSKI, MASATO KOBAYASHI,
     PRAKASHAN KORAMBATH, JACEK KORCHOWIEC, SHIRO KOSEKI,
     KAROL KOWALSKI, JIMMY KROMANN, STANISLAW KUCHARSKI,
     HENRY KURTZ, SAROM SOK LEANG, HUI LI, SHUHUA LI, WEI LI,
     JESSE LUTZ, ALEKSANDR O. LYKHIN, MARCIN MAKOWSKI,
     JOANI MATO, NIKITA MATSUNAGA, BENEDETTA MENNUCCI,
     GRANT MERRILL, NORIYUKI MINEZAWA, VLADIMIR MIRONOV,
     EISAKU MIYOSHI, JOHN A. MONTGOMERY JR., HIROTOSHI MORI,
     JONATHAN MULLIN, MONIKA MUSIAL, SHIGERU NAGASE,
     TAKESHI NAGATA, HIROMI NAKAI, TAKAHITO NAKAJIMA,
     YUYA NAKAJIMA, HARUYUKI NAKANO, HIROYA NAKATA, SEAN NEDD,
     HEATHER NETZLOFF, KIET A. NGUYEN, YOSHIO NISHIMOTO,
     BOSILJKA NJEGIC, RYAN OLSON, MIKE PAK, ROBERTO PEVERATI,
     BUU PHAM, PIOTR PIECUCH, ANNA POMOGAEVA, DAVID POOLE,
     SPENCER PRUITT, OLIVIER QUINET, LUKE ROSKOP,
     KLAUS RUEDENBERG, ANDREW SAND, TOSAPORN SATTASATHUCHANA,
     NOZOMI SAWADA, MICHAEL W. SCHMIDT, PATRICK E. SCHNEIDER,
     JUNJI SEINO, PRACHI SHARMA, JUN SHEN, JIM SHOEMAKER,
     YINAN SHU, DEJUN SI, JONATHAN SKONE, LYUDMILA SLIPCHENKO,
     TONY SMITH, JIE SONG, MARK SPACKMAN, CASPER STEINMANN,
     WALT STEVENS, PEIFENG SU, SHUJUN SU, CHET SWALINA,
     TETSUYA TAKETSUGU, ZHEN TAO, NANDUN THELLAMUREGE
     SEIKEN TOKURA, JACOPO TOMASI, TSUGUKI TOUMA, TAKAO TSUNEDA,
     HIROAKI UMEDA, JORGE LUIS GALVEZ VALLEJO, YALI WANG,
     SIMON WEBB, AARON WEST, THERESA L. WINDUS, MARTA WLOCH,
     PENG XU, KIYOSHI YAGI, SUSUMU YANAGISAWA, YANG YANG,
     SOOHAENG YOO, TAKESHI YOSHIKAWA, FEDERICO ZAHARIEV,
     TOBY ZENG

  WHO ARE SUPPORTED BY THEIR INSTITUTION/UNIVERSITY/COMPANY/GROUP
  (IN ALPHABETICAL ORDER):

     EP ANALYTICS, FACULTES UNIVERSITAIRES NOTRE-DAME DE LA PAIX,
     INSTITUTE FOR MOLECULAR SCIENCE, IOWA STATE UNIVERSITY,
     JACKSON STATE UNIVERSITY, JOHANNES KEPLER UNIVERSITY LINZ,
     KYUSHU UNIVERSITY, MICHIGAN STATE UNIVERSITY,
     MIE UNIVERSITY, MOSCOW STATE UNIVERSITY,
     N. COPERNICUS UNIVERSITY, NAGOYA UNIVERSITY,
     NANJING UNIVERSITY, NAT. INST. OF ADVANCED INDUSTRIAL
     SCIENCE AND TECHNOLOGY, NATIONAL INST. OF STANDARDS AND
     TECHNOLOGY, NESMEYANOV INSTITUTE OF ORGANOELEMENT COMPOUNDS
     OF RUSSIAN ACADEMY OF SCIENCES, OSAKA PREFECTURE UNIVERSITY,
     PENNSYLVANIA STATE UNIVERSITY, TOKYO INSTITUTE OF TECHNOLOGY,
     UNIVERSITY OF AARHUS, UNIVERSITY OF ALBERTA,
     UNIVERSITY OF CALIFORNIA AT SANTA BARBARA,
     UNIVERSITY OF COPENHAGEN, UNIVERSITY OF IOWA,
     UNIVERSITY OF MEMPHIS, UNIVERSITY OF MINNESOTA,
     UNIVERSITY OF NEBRASKA, UNIVERSITY OF NEW ENGLAND,
     UNIVERSITY OF NOTRE DAME, UNIVERSITY OF PISA,
     UNIVERSITY OF SILESIA, UNIVERSITY OF TOKYO,
     UNIVERSITY OF ZURICH, WASEDA UNIVERSITY, YALE UNIVERSITY

  GAMESS SOFTWARE MANAGEMENT TEAM FOR THIS RELEASE:
     MARK S. GORDON (TEAM LEAD),
     BRETT BODE (SENIOR ADVISOR),
     GIUSEPPE BARCA,
     COLLEEN BERTONI,
     KRISTOPHER KEIPERT (ADVISOR),
     SAROM S. LEANG (DEVELOPMENT LEAD),
     BUU PHAM,
     JORGE LUIS GALVEZ VALLEJO (WEBSITE ADMINISTRATOR),
     PENG XU


 PARALLEL VERSION RUNNING ON       16 PROCESSORS IN        1 NODES.

 EXECUTION OF GAMESS BEGUN 14:30:56 25-DEC-2023    

            ECHO OF THE FIRST FEW INPUT CARDS -
 INPUT CARD> $CONTRL SCFTYP=UHF RUNTYP=EDA dfttyp=B3LYP ispher=1 icharg=0 mult=1 $END       
 INPUT CARD> $SYSTEM  mwords=150 memddi=150 $END                                            
 INPUT CARD> $BASIS gbasis=accd $END                                                        
 INPUT CARD> $LMOEDA MATOM(1)=5 5 MCHARG(1)=0 0 MMULT(1)=2 -2 edatyp=gks $end               
 INPUT CARD> $scf DIIS=.TRUE. ETHRSH=2.0 SWDIIS=0.005 $end                                  
 INPUT CARD> $data                                                                          
 INPUT CARD> EDA calculation with XEDA 1.0                                                  
 INPUT CARD> c1                                                                             
 INPUT CARD>C   6   -0.2295937408    0.8795922825   -1.3931201310                           
 INPUT CARD>C   6   -0.2295937408    0.8795922825   -0.0371863555                           
 INPUT CARD>H   1   -0.2640203304    1.8350194885    0.5013242152                           
 INPUT CARD>H   1   -0.2377272680   -0.0517345057   -1.9668716946                           
 INPUT CARD>H   1   -0.2250078564    1.8072997275   -1.9703540797                           
 INPUT CARD>C   6   -0.2295937408   -0.3542911376    0.8059676328                           
 INPUT CARD>C   6    0.6586078510   -1.3703933306    0.6748389330                           
 INPUT CARD>H   1    1.4562289565   -1.3422326804   -0.0732490236                           
 INPUT CARD>H   1    0.6187865270   -2.2576621346    1.3112562460                           
 INPUT CARD>H   1   -0.9889908643   -0.4014766379    1.5965985442                           
 INPUT CARD> $end                                                                           
  150000000 WORDS OF MEMORY AVAILABLE

     BASIS OPTIONS
     -------------
     GBASIS=ACCD         IGAUSS=       0      POLAR=NONE    
     NDFUNC=       0     NFFUNC=       0     DIFFSP=       F
     NPFUNC=       0      DIFFS=       F     BASNAM=        


     RUN TITLE
     ---------
  EDA calculation with XEDA 1.0                                                  

 THE POINT GROUP OF THE MOLECULE IS C1      
 THE ORDER OF THE PRINCIPAL AXIS IS     0

 ATOM      ATOMIC                      COORDINATES (BOHR)
           CHARGE         X                   Y                   Z
 C           6.0    -0.4338692586        1.6621883948       -2.6326153156
 C           6.0    -0.4338692586        1.6621883948       -0.0702720224
 H           1.0    -0.4989260796        3.4676840154        0.9473653977
 H           1.0    -0.4492393963       -0.0977640399       -3.7168485558
 H           1.0    -0.4252031937        3.4153012627       -3.7234293094
 C           6.0    -0.4338692586       -0.6695131699        1.5230579810
 C           6.0     1.2445883718       -2.5896678902        1.2752606692
 H           1.0     2.7518737032       -2.5364519777       -0.1384205835
 H           1.0     1.1693369809       -4.2663628072        2.4779150046
 H           1.0    -1.8689217379       -0.7586808361        3.0171337609

          INTERNUCLEAR DISTANCES (ANGS.)
          ------------------------------

                1 C          2 C          3 H          4 H          5 H     

   1 C       0.0000000    1.3559338 *  2.1220145 *  1.0939043 *  1.0926395 *
   2 C       1.3559338 *  0.0000000    1.0972784 *  2.1426902 *  2.1442480 *
   3 H       2.1220145 *  1.0972784 *  0.0000000    3.1068510    2.4721416 *
   4 H       1.0939043 *  2.1426902 *  3.1068510    0.0000000    1.8590810 *
   5 H       1.0926395 *  2.1442480 *  2.4721416 *  1.8590810 *  0.0000000  
   6 C       2.5215978 *  1.4944487 *  2.2106727 *  2.7893090 *  3.5185876  
   7 C       3.1824192    2.5215704 *  3.3400631    3.0855976    4.2279494  
   8 H       3.0855411    2.7892302 *  3.6584592    2.8496807 *  4.0429097  
   9 H       4.2279742    3.5185809    4.2644321    4.0430008    5.2919628  
  10 H       3.3400957    2.2106729 *  2.5936698 *  3.6585566    4.2644477  

                6 C          7 C          8 H          9 H         10 H     

   1 C       2.5215978 *  3.1824192    3.0855411    4.2279742    3.3400957  
   2 C       1.4944487 *  2.5215704 *  2.7892302 *  3.5185809    2.2106729 *
   3 H       2.2106727 *  3.3400631    3.6584592    4.2644321    2.5936698 *
   4 H       2.7893090 *  3.0855976    2.8496807 *  4.0430008    3.6585566  
   5 H       3.5185876    4.2279494    4.0429097    5.2919628    4.2644477  
   6 C       0.0000000    1.3559353 *  2.1426732 *  2.1442684 *  1.0972728 *
   7 C       1.3559353 *  0.0000000    1.0939050 *  1.0926384 *  2.1220325 *
   8 H       2.1426732 *  1.0939050 *  0.0000000    1.8590793 *  3.1068493  
   9 H       2.1442684 *  1.0926384 *  1.8590793 *  0.0000000    2.4722041 *
  10 H       1.0972728 *  2.1220325 *  3.1068493    2.4722041 *  0.0000000  

  * ... LESS THAN  3.000


     ATOMIC BASIS SET
     ----------------
 THE CONTRACTED PRIMITIVE FUNCTIONS HAVE BEEN UNNORMALIZED
 THE CONTRACTED BASIS FUNCTIONS ARE NOW NORMALIZED TO UNITY

  SHELL TYPE  PRIMITIVE        EXPONENT          CONTRACTION COEFFICIENT(S)

 C         

      1   S       1          6665.0000000    0.000691583963
      1   S       2          1000.0000000    0.005325796153
      1   S       3           228.0000000    0.027060721042
      1   S       4            64.7100000    0.101656846141
      1   S       5            21.0600000    0.274574823617
      1   S       6             7.4950000    0.448294318924
      1   S       7             2.7970000    0.284902610715
      1   S       8             0.5215000    0.015194859206

      2   S       9          6665.0000000   -0.000293269653
      2   S      10          1000.0000000   -0.002318035474
      2   S      11           228.0000000   -0.011499786039
      2   S      12            64.7100000   -0.046826727010
      2   S      13            21.0600000   -0.128466168750
      2   S      14             7.4950000   -0.301266272463
      2   S      15             2.7970000   -0.255630702330
      2   S      16             0.5215000    1.093793361012

      3   S      17             0.1596000    1.000000000000

      4   P      18             9.4390000    0.056979251590
      4   P      19             2.0020000    0.313207211501
      4   P      20             0.5456000    0.760376741738

      5   P      21             0.1517000    1.000000000000

      6   D      22             0.5500000    1.000000000000

      7   S      23             0.0469000    1.000000000000

      8   P      24             0.0404100    1.000000000000

      9   D      25             0.1510000    1.000000000000

 C         

     10   S      26          6665.0000000    0.000691583963
     10   S      27          1000.0000000    0.005325796153
     10   S      28           228.0000000    0.027060721042
     10   S      29            64.7100000    0.101656846141
     10   S      30            21.0600000    0.274574823617
     10   S      31             7.4950000    0.448294318924
     10   S      32             2.7970000    0.284902610715
     10   S      33             0.5215000    0.015194859206

     11   S      34          6665.0000000   -0.000293269653
     11   S      35          1000.0000000   -0.002318035474
     11   S      36           228.0000000   -0.011499786039
     11   S      37            64.7100000   -0.046826727010
     11   S      38            21.0600000   -0.128466168750
     11   S      39             7.4950000   -0.301266272463
     11   S      40             2.7970000   -0.255630702330
     11   S      41             0.5215000    1.093793361012

     12   S      42             0.1596000    1.000000000000

     13   P      43             9.4390000    0.056979251590
     13   P      44             2.0020000    0.313207211501
     13   P      45             0.5456000    0.760376741738

     14   P      46             0.1517000    1.000000000000

     15   D      47             0.5500000    1.000000000000

     16   S      48             0.0469000    1.000000000000

     17   P      49             0.0404100    1.000000000000

     18   D      50             0.1510000    1.000000000000

 H         

     19   S      51            13.0100000    0.033498726390
     19   S      52             1.9620000    0.234800801174
     19   S      53             0.4446000    0.813682957883

     20   S      54             0.1220000    1.000000000000

     21   P      55             0.7270000    1.000000000000

     22   S      56             0.0297400    1.000000000000

     23   P      57             0.1410000    1.000000000000

 H         

     24   S      58            13.0100000    0.033498726390
     24   S      59             1.9620000    0.234800801174
     24   S      60             0.4446000    0.813682957883

     25   S      61             0.1220000    1.000000000000

     26   P      62             0.7270000    1.000000000000

     27   S      63             0.0297400    1.000000000000

     28   P      64             0.1410000    1.000000000000

 H         

     29   S      65            13.0100000    0.033498726390
     29   S      66             1.9620000    0.234800801174
     29   S      67             0.4446000    0.813682957883

     30   S      68             0.1220000    1.000000000000

     31   P      69             0.7270000    1.000000000000

     32   S      70             0.0297400    1.000000000000

     33   P      71             0.1410000    1.000000000000

 C         

     34   S      72          6665.0000000    0.000691583963
     34   S      73          1000.0000000    0.005325796153
     34   S      74           228.0000000    0.027060721042
     34   S      75            64.7100000    0.101656846141
     34   S      76            21.0600000    0.274574823617
     34   S      77             7.4950000    0.448294318924
     34   S      78             2.7970000    0.284902610715
     34   S      79             0.5215000    0.015194859206

     35   S      80          6665.0000000   -0.000293269653
     35   S      81          1000.0000000   -0.002318035474
     35   S      82           228.0000000   -0.011499786039
     35   S      83            64.7100000   -0.046826727010
     35   S      84            21.0600000   -0.128466168750
     35   S      85             7.4950000   -0.301266272463
     35   S      86             2.7970000   -0.255630702330
     35   S      87             0.5215000    1.093793361012

     36   S      88             0.1596000    1.000000000000

     37   P      89             9.4390000    0.056979251590
     37   P      90             2.0020000    0.313207211501
     37   P      91             0.5456000    0.760376741738

     38   P      92             0.1517000    1.000000000000

     39   D      93             0.5500000    1.000000000000

     40   S      94             0.0469000    1.000000000000

     41   P      95             0.0404100    1.000000000000

     42   D      96             0.1510000    1.000000000000

 C         

     43   S      97          6665.0000000    0.000691583963
     43   S      98          1000.0000000    0.005325796153
     43   S      99           228.0000000    0.027060721042
     43   S     100            64.7100000    0.101656846141
     43   S     101            21.0600000    0.274574823617
     43   S     102             7.4950000    0.448294318924
     43   S     103             2.7970000    0.284902610715
     43   S     104             0.5215000    0.015194859206

     44   S     105          6665.0000000   -0.000293269653
     44   S     106          1000.0000000   -0.002318035474
     44   S     107           228.0000000   -0.011499786039
     44   S     108            64.7100000   -0.046826727010
     44   S     109            21.0600000   -0.128466168750
     44   S     110             7.4950000   -0.301266272463
     44   S     111             2.7970000   -0.255630702330
     44   S     112             0.5215000    1.093793361012

     45   S     113             0.1596000    1.000000000000

     46   P     114             9.4390000    0.056979251590
     46   P     115             2.0020000    0.313207211501
     46   P     116             0.5456000    0.760376741738

     47   P     117             0.1517000    1.000000000000

     48   D     118             0.5500000    1.000000000000

     49   S     119             0.0469000    1.000000000000

     50   P     120             0.0404100    1.000000000000

     51   D     121             0.1510000    1.000000000000

 H         

     52   S     122            13.0100000    0.033498726390
     52   S     123             1.9620000    0.234800801174
     52   S     124             0.4446000    0.813682957883

     53   S     125             0.1220000    1.000000000000

     54   P     126             0.7270000    1.000000000000

     55   S     127             0.0297400    1.000000000000

     56   P     128             0.1410000    1.000000000000

 H         

     57   S     129            13.0100000    0.033498726390
     57   S     130             1.9620000    0.234800801174
     57   S     131             0.4446000    0.813682957883

     58   S     132             0.1220000    1.000000000000

     59   P     133             0.7270000    1.000000000000

     60   S     134             0.0297400    1.000000000000

     61   P     135             0.1410000    1.000000000000

 H         

     62   S     136            13.0100000    0.033498726390
     62   S     137             1.9620000    0.234800801174
     62   S     138             0.4446000    0.813682957883

     63   S     139             0.1220000    1.000000000000

     64   P     140             0.7270000    1.000000000000

     65   S     141             0.0297400    1.000000000000

     66   P     142             0.1410000    1.000000000000

 TOTAL NUMBER OF BASIS SET SHELLS             =   66
 NUMBER OF CARTESIAN GAUSSIAN BASIS FUNCTIONS =  154
 NOTE: THIS RUN WILL RESTRICT THE MO VARIATION SPACE TO SPHERICAL HARMONICS.
 THE NUMBER OF ORBITALS KEPT IN THE VARIATIONAL SPACE WILL BE PRINTED LATER.
 NUMBER OF ELECTRONS                          =   30
 CHARGE OF MOLECULE                           =    0
 SPIN MULTIPLICITY                            =    1
 NUMBER OF OCCUPIED ORBITALS (ALPHA)          =   15
 NUMBER OF OCCUPIED ORBITALS (BETA )          =   15
 TOTAL NUMBER OF ATOMS                        =   10
 THE NUCLEAR REPULSION ENERGY IS      103.3061752989

 SELECTED MURRAY-HANDY-LAMING RADIAL GRID

 LEGACY BECKE'S FUZZY CELL METHOD

 SELECTED ORIGINAL BECKE'S PARTITION FUNCTION

     LEBEDEV GRID-BASED DFT OPTIONS
     ------------------------------
     DFTTYP=B3LYP   
     NRAD  =      96     NLEB  =     302
     NRAD0 =      24     NLEB0 =     110
     SWOFF =    5.00E-03 (PURE SCF -> DFT)
     SWITCH=    3.00E-04 (COARSE -> TIGHT GRID)
     THRESH=    0.00E+00 GTHRE=    1.00E+00

 GRIMME'S EMPIRICAL DISPERSION CORRECTION= F

     $CONTRL OPTIONS
     ---------------
 SCFTYP=UHF          RUNTYP=LMOEDA       EXETYP=RUN     
 MPLEVL=       0     CITYP =NONE         CCTYP =NONE         VBTYP =NONE    
 DFTTYP=B3LYP        TDDFT =NONE    
 MULT  =       1     ICHARG=       0     NZVAR =       0     COORD =UNIQUE  
 PP    =NONE         RELWFN=NONE         LOCAL =NONE         NUMGRD=       F
 ISPHER=       1     NOSYM =       0     MAXIT =      30     UNITS =ANGS    
 PLTORB=       F     MOLPLT=       F     AIMPAC=       F     FRIEND=        
 NPRINT=       7     IREST =       0     GEOM  =INPUT   
 NORMF =       0     NORMP =       0     ITOL  =      20     ICUT  =       9
 INTTYP=BEST         GRDTYP=BEST         QMTTOL= 1.0E-06

     $SYSTEM OPTIONS
     ---------------
  REPLICATED MEMORY=   150000000 WORDS (ON EVERY NODE).
 DISTRIBUTED MEMDDI=         150 MILLION WORDS IN AGGREGATE,
 MEMDDI DISTRIBUTED OVER  16 PROCESSORS IS     9375000 WORDS/PROCESSOR.
 TOTAL MEMORY REQUESTED ON EACH PROCESSOR=   159375000 WORDS.
 TIMLIM=      525600.00 MINUTES, OR     365.0 DAYS.
 PARALL= T  BALTYP=  DLB     KDIAG=    0  COREFL= F
 MXSEQ2=     300 MXSEQ3=     150  mem10=         0  mem22=         0

 Using Gaussians for PCM contribution to MEP, params: 0.10000E+01 0.10000E-07

          ----------------
          PROPERTIES INPUT
          ----------------

     MOMENTS            FIELD           POTENTIAL          DENSITY
 IEMOM =       1   IEFLD =       0   IEPOT =       0   IEDEN =       0
 WHERE =COMASS     WHERE =NUCLEI     WHERE =NUCLEI     WHERE =NUCLEI  
 OUTPUT=BOTH       OUTPUT=BOTH       OUTPUT=BOTH       OUTPUT=BOTH    
 IEMINT=       0   IEFINT=       0                     IEDINT=       0
                                                       MORB  =       0
          EXTRAPOLATION IN EFFECT
          DIIS IN EFFECT
          DIIS or SOSCF will be reset if energy rises
 ORBITAL PRINTING OPTION: NPREO=     1   154     2     1

     -------------------------------
     INTEGRAL TRANSFORMATION OPTIONS
     -------------------------------
     NWORD  =            0
     CUTOFF = 1.0E-09     MPTRAN =       0
     DIRTRF =       F     AOINTS =DUP     

          -----------------------------
          LOCALIZATION INPUT PARAMETERS
          -----------------------------
           LOCAL=RUEDNBRG      NOUTA=       0
          PRTLOC=       F      NOUTB=       0
          MAXLOC=     250     CVGLOC=1.00E-06
           FCORE=       F     SYMLOC=       F
          MOIDON=       F     EDCOMP=       F
          DIPDCM=       F      NPROT=       0
          QADDCM=       F     DEPRNT=       F
          POLNUM=       F     ORIENT=       F
          POLDYN=       F      VMTOL=1.50E-01
          NPRDTL=       2     IBOYAL=       1

          ----------------------
          INTEGRAL INPUT OPTIONS
          ----------------------
 NOPK  =       1 NORDER=       0 SCHWRZ=       T

     ------------------------------------------
     THE POINT GROUP IS C1 , NAXIS= 0, ORDER= 1
     ------------------------------------------

 -- VARIATIONAL SPACE WILL BE RESTRICTED TO PURE SPHERICAL HARMONICS ONLY --
 AFTER EXCLUDING CONTAMINANT COMBINATIONS FROM THE CARTESIAN GAUSSIAN BASIS
 SET, THE NUMBER OF SPHERICAL HARMONICS KEPT IN THE VARIATION SPACE IS  146

     DIMENSIONS OF THE SYMMETRY SUBSPACES ARE
 A   =  146

 ..... DONE SETTING UP THE RUN .....
 CPU     0: STEP CPU TIME=     0.03 TOTAL CPU TIME=          0.0 (      0.0 MIN)
 TOTAL WALL CLOCK TIME=          0.0 SECONDS, CPU UTILIZATION IS    82.63%

          --------------
          GKSEDA OPTIONS
          --------------
          NMOL  =       2          EDATYP=GKS     
          SUPBAS=       T          RDVECM=       F          ITRTN =       T

 *******************
 GKSEDA IS BEGINNING
 *******************

 NMOL =  2

 MONOMER     ATOM   CHARGE ELECTRON MULTIPLE
 -------------------------------------------
       1        5        0       15        2
       2        5        0       15       -2
 -------------------------------------------

 SAVING MOL INFO REQUIRES    598670 WORDS OF MEMORY.

          ********************
          1 ELECTRON INTEGRALS
          ********************
 ...... END OF ONE-ELECTRON INTEGRALS ......
 CPU     0: STEP CPU TIME=     0.01 TOTAL CPU TIME=          0.0 (      0.0 MIN)
 TOTAL WALL CLOCK TIME=          0.0 SECONDS, CPU UTILIZATION IS    84.32%

          -------------
          GUESS OPTIONS
          -------------
          GUESS =HUCKEL            NORB  =       0          NORDER=       0
          MIX   =       F          PRTMO =       F          PUNMO =       F
          TOLZ  = 1.0E-08          TOLE  = 1.0E-05
          SYMDEN=       F          PURIFY=       F

 INITIAL GUESS ORBITALS GENERATED BY HUCKEL   ROUTINE.
 HUCKEL GUESS REQUIRES    180842 WORDS.

 STATISTICS FOR GENERATION OF SYMMETRY ORBITAL -Q- MATRIX
 NUMBER OF CARTESIAN ATOMIC ORBITALS=        154
 NUMBER OF SPHERICAL CONTAMINANTS DROPPED=     8
 NUMBER OF LINEARLY DEPENDENT MOS DROPPED=     0
 TOTAL NUMBER OF MOS IN VARIATION SPACE=     146

 SYMMETRIES FOR INITIAL GUESS ORBITALS FOLLOW.  ALPHA SET(S).
    15 ORBITALS ARE OCCUPIED (    4 CORE ORBITALS).
     5=A        6=A        7=A        8=A        9=A       10=A       11=A   
    12=A       13=A       14=A       15=A       16=A       17=A       18=A   
    19=A       20=A       21=A       22=A       23=A       24=A       25=A   

 SYMMETRIES FOR INITIAL GUESS ORBITALS FOLLOW.   BETA SET(S).
    15 ORBITALS ARE OCCUPIED (    4 CORE ORBITALS).
     5=A        6=A        7=A        8=A        9=A       10=A       11=A   
    12=A       13=A       14=A       15=A       16=A       17=A       18=A   
    19=A       20=A       21=A       22=A       23=A       24=A       25=A   
 ...... END OF INITIAL ORBITAL SELECTION ......
 CPU     0: STEP CPU TIME=     0.01 TOTAL CPU TIME=          0.1 (      0.0 MIN)
 TOTAL WALL CLOCK TIME=          0.1 SECONDS, CPU UTILIZATION IS    87.98%

          -------------------------
          MONOMER  1 WITH OWN BASIS
          -------------------------

     ------------------------------------------
     THE POINT GROUP IS C1 , NAXIS= 0, ORDER= 1
     ------------------------------------------

 -- VARIATIONAL SPACE WILL BE RESTRICTED TO PURE SPHERICAL HARMONICS ONLY --
 AFTER EXCLUDING CONTAMINANT COMBINATIONS FROM THE CARTESIAN GAUSSIAN BASIS
 SET, THE NUMBER OF SPHERICAL HARMONICS KEPT IN THE VARIATION SPACE IS   73

     DIMENSIONS OF THE SYMMETRY SUBSPACES ARE
 A   =   73

          ********************
          1 ELECTRON INTEGRALS
          ********************
 ...... END OF ONE-ELECTRON INTEGRALS ......
 CPU     0: STEP CPU TIME=     0.01 TOTAL CPU TIME=          0.1 (      0.0 MIN)
 TOTAL WALL CLOCK TIME=          0.1 SECONDS, CPU UTILIZATION IS    88.76%

          -------------
          GUESS OPTIONS
          -------------
          GUESS =HUCKEL            NORB  =       0          NORDER=       0
          MIX   =       F          PRTMO =       F          PUNMO =       F
          TOLZ  = 1.0E-08          TOLE  = 1.0E-05
          SYMDEN=       F          PURIFY=       F

 INITIAL GUESS ORBITALS GENERATED BY HUCKEL   ROUTINE.
 HUCKEL GUESS REQUIRES     47410 WORDS.

 STATISTICS FOR GENERATION OF SYMMETRY ORBITAL -Q- MATRIX
 NUMBER OF CARTESIAN ATOMIC ORBITALS=         77
 NUMBER OF SPHERICAL CONTAMINANTS DROPPED=     4
 NUMBER OF LINEARLY DEPENDENT MOS DROPPED=     0
 TOTAL NUMBER OF MOS IN VARIATION SPACE=      73

 SYMMETRIES FOR INITIAL GUESS ORBITALS FOLLOW.  ALPHA SET(S).
     8 ORBITALS ARE OCCUPIED (    2 CORE ORBITALS).
     3=A        4=A        5=A        6=A        7=A        8=A        9=A   
    10=A       11=A       12=A       13=A       14=A       15=A       16=A   
    17=A       18=A   

 SYMMETRIES FOR INITIAL GUESS ORBITALS FOLLOW.   BETA SET(S).
     7 ORBITALS ARE OCCUPIED (    2 CORE ORBITALS).
     3=A        4=A        5=A        6=A        7=A        8=A        9=A   
    10=A       11=A       12=A       13=A       14=A       15=A       16=A   
    17=A   
 ...... END OF INITIAL ORBITAL SELECTION ......
 CPU     0: STEP CPU TIME=     0.00 TOTAL CPU TIME=          0.1 (      0.0 MIN)
 TOTAL WALL CLOCK TIME=          0.1 SECONDS, CPU UTILIZATION IS    89.23%

                    ----------------------
                    AO INTEGRAL TECHNOLOGY
                    ----------------------
     S,P,L SHELL ROTATED AXIS INTEGRALS, REPROGRAMMED BY
        KAZUYA ISHIMURA (IMS) AND JOSE SIERRA (SYNSTAR).
     S,P,D,L SHELL ROTATED AXIS INTEGRALS PROGRAMMED BY
        KAZUYA ISHIMURA (INSTITUTE FOR MOLECULAR SCIENCE).
     S,P,D,F,G SHELL TO TOTAL QUARTET ANGULAR MOMENTUM SUM 5,
        ERIC PROGRAM BY GRAHAM FLETCHER (ELORET AND NASA ADVANCED
        SUPERCOMPUTING DIVISION, AMES RESEARCH CENTER).
     S,P,D,F,G,L SHELL GENERAL RYS QUADRATURE PROGRAMMED BY
        MICHEL DUPUIS (PACIFIC NORTHWEST NATIONAL LABORATORY).

          --------------------
          2 ELECTRON INTEGRALS
          --------------------

 THE -PK- OPTION IS OFF, THE INTEGRALS ARE NOT IN SUPERMATRIX FORM.
 STORING   15000 INTEGRALS/RECORD ON DISK, USING 12 BYTES/INTEGRAL.
 TWO ELECTRON INTEGRAL EVALUATION REQUIRES   90957 WORDS OF MEMORY.
 SCHWARZ INEQUALITY OVERHEAD:      3003 INTEGRALS, T=        0.00
 II,JST,KST,LST =  1  1  1  1 NREC =         1 INTLOC =    1
 II,JST,KST,LST =  2  1  1  1 NREC =         1 INTLOC =    1
 II,JST,KST,LST =  3  1  1  1 NREC =         1 INTLOC =    1
 II,JST,KST,LST =  4  1  1  1 NREC =         1 INTLOC =    1
 II,JST,KST,LST =  5  1  1  1 NREC =         1 INTLOC =    1
 II,JST,KST,LST =  6  1  1  1 NREC =         1 INTLOC =    1
 II,JST,KST,LST =  7  1  1  1 NREC =         1 INTLOC =    4
 II,JST,KST,LST =  8  1  1  1 NREC =         1 INTLOC =  250
 II,JST,KST,LST =  9  1  1  1 NREC =         1 INTLOC =  250
 II,JST,KST,LST = 10  1  1  1 NREC =         1 INTLOC =  250
 II,JST,KST,LST = 11  1  1  1 NREC =         1 INTLOC =  680
 II,JST,KST,LST = 12  1  1  1 NREC =         1 INTLOC =  680
 II,JST,KST,LST = 13  1  1  1 NREC =         1 INTLOC = 1187
 II,JST,KST,LST = 14  1  1  1 NREC =         1 INTLOC = 3377
 II,JST,KST,LST = 15  1  1  1 NREC =         1 INTLOC = 3377
 II,JST,KST,LST = 16  1  1  1 NREC =         1 INTLOC = 3377
 II,JST,KST,LST = 17  1  1  1 NREC =         1 INTLOC = 6869
 II,JST,KST,LST = 18  1  1  1 NREC =         1 INTLOC = 6869
 II,JST,KST,LST = 19  1  1  1 NREC =         1 INTLOC = 9457
 II,JST,KST,LST = 20  1  1  1 NREC =         1 INTLOC =13465
 II,JST,KST,LST = 21  1  1  1 NREC =         2 INTLOC = 3318
 II,JST,KST,LST = 22  1  1  1 NREC =         3 INTLOC = 7064
 II,JST,KST,LST = 23  1  1  1 NREC =         5 INTLOC = 2096
 II,JST,KST,LST = 24  1  1  1 NREC =         7 INTLOC =11049
 II,JST,KST,LST = 25  1  1  1 NREC =         8 INTLOC =11103
 II,JST,KST,LST = 26  1  1  1 NREC =         9 INTLOC = 1473
 II,JST,KST,LST = 27  1  1  1 NREC =         9 INTLOC =13563
 II,JST,KST,LST = 28  1  1  1 NREC =        11 INTLOC = 2025
 II,JST,KST,LST = 29  1  1  1 NREC =        12 INTLOC = 3350
 II,JST,KST,LST = 30  1  1  1 NREC =        14 INTLOC = 9828
 II,JST,KST,LST = 31  1  1  1 NREC =        14 INTLOC = 9828
 II,JST,KST,LST = 32  1  1  1 NREC =        16 INTLOC = 9817
 II,JST,KST,LST = 33  1  1  1 NREC =        17 INTLOC = 9266
 SCHWARZ INEQUALITY TEST SKIPPED           0 INTEGRAL BLOCKS.
 TOTAL NUMBER OF NONZERO TWO-ELECTRON INTEGRALS =             3900176
        269 INTEGRAL RECORDS WERE STORED ON DISK FILE  8.
  ...... END OF TWO-ELECTRON INTEGRALS .....
 CPU     0: STEP CPU TIME=     0.03 TOTAL CPU TIME=          0.1 (      0.0 MIN)
 TOTAL WALL CLOCK TIME=          0.1 SECONDS, CPU UTILIZATION IS    91.01%

          ---------------------------
              U-B3LYP SCF CALCULATION
          ---------------------------

     NUCLEAR ENERGY =        27.8794146242
     MAXIT = 30     NPUNCH=  2     MULT=  2
     EXTRAP=T  DAMP=F  SHIFT=F  RSTRCT=F  DIIS=T  SOSCF=T
         DENSITY MATRIX CONVERGENCE THRESHOLD=  1.00E-05
     COARSE -> FINE DFT GRID SWITCH THRESHOLD=  3.00E-04 (SWITCH IN $DFT)
                   HF -> DFT SWITCH THRESHOLD=  5.00E-03 (SWOFF IN $DFT)
     SOSCF WILL OPTIMIZE     520 ALPHA AND     462 BETA ROTATION ANGLES.
     SOGTOL= 2.500E-01
     MEMORY REQUIRED FOR UHF/ROHF ITERS=    298732 WORDS.

     EXCHANGE FUNCTIONAL   =B88&HFX   
     CORRELATION FUNCTIONAL=LYP88&VWN5
     DFT THRESHOLD         =.690E-08
     GRID CHANGE THRESHOLD =.300E-03
 FOR AN EULER-MACLAURIN QUADRATURE USING  96 RADIAL POINTS:
 SMALLEST GAUSSIAN PRIMITIVE EXPONENT=        0.0297400000 OF TYPE -S-
 ON ATOM NUMBER   3 HAS RADIAL NORMALIZATION=  1.000000
  LARGEST GAUSSIAN PRIMITIVE EXPONENT=     6665.0000000000 OF TYPE -S-
 ON ATOM NUMBER   1 HAS RADIAL NORMALIZATION=  1.000000
 DFT IS SWITCHED OFF, PERFORMING PURE SCF UNTIL SWOFF THRESHOLD IS REACHED.

 ITER EX      TOTAL ENERGY        E CHANGE  DENSITY CHANGE    DIIS ERROR
          * * *   INITIATING DIIS PROCEDURE   * * *
   1  0      -77.1746674434   -77.1746674434   0.500597285   0.357319961
   2  1      -77.3687293396    -0.1940618962   0.154599878   0.054041086
   3  2      -77.3847706021    -0.0160412624   0.031179880   0.025928794
   4  3      -77.3891726395    -0.0044020374   0.022110073   0.011192569
   5  4      -77.3905593408    -0.0013867014   0.012896196   0.008536945
   6  5      -77.3912058030    -0.0006464622   0.024467120   0.008530439
   7  6      -77.3922720577    -0.0010662547   0.064485026   0.008276081
   8  7      -77.3946445651    -0.0023725074   0.110329699   0.006398902
   9  8      -77.3961753929    -0.0015308278   0.065934227   0.001964690
  10  9      -77.3957646637     0.0004107293   0.041781928   0.004018013
  11 10      -77.3962423481    -0.0004776844   0.006380750   0.000681841
  12 11      -77.3962551900    -0.0000128419   0.001082238   0.000112943
 CONVERGED TO SWOFF, SO DFT CALCULATION IS NOW SWITCHED ON.
          * * *   INITIATING DIIS PROCEDURE   * * *
  13 12      -77.8301302899    -0.4338750999   0.393404621   0.062384693
  14 13      -77.8467131143    -0.0165828244   0.062613705   0.016702016
  15 14      -77.8493883636    -0.0026752493   0.024675586   0.011959881
  16 15      -77.8508431870    -0.0014548234   0.050487308   0.007360848
  17 16      -77.8518203898    -0.0009772028   0.009149729   0.003398473
  18 17      -77.8519024194    -0.0000820296   0.005967714   0.001412865
  19 18      -77.8519221381    -0.0000197187   0.002014121   0.000278854
         SWDIIS THRESHOLD HAS BEEN REACHED: SWITCHING DIIS OFF.
          ---------------START SECOND ORDER SCF---------------
  20 19      -77.8519232899    -0.0000011518   0.000135886   0.000021629
  21 20      -77.8519233029    -0.0000000129   0.000155913   0.000022791
  22 21      -77.8519233034    -0.0000000005   0.000065797   0.000022282
  23 22      -77.8519233079    -0.0000000045   0.000008451   0.000002383
  24 23      -77.8519233080    -0.0000000001   0.000011623   0.000001872

          ----------------
          ENERGY CONVERGED
          ----------------
     TIME TO FORM FOCK OPERATORS=       1.2 SECONDS (       0.1 SEC/ITER)
     TIME TO SOLVE SCF EQUATIONS=       0.1 SECONDS (       0.0 SEC/ITER)

 FINAL U-B3LYP ENERGY IS      -77.8519233080 AFTER  24 ITERATIONS
 DFT EXCHANGE + CORRELATION ENERGY =        -9.5250184710
 TOTAL ELECTRON NUMBER             =        14.9999894958

          --------------------
          SPIN SZ   =    0.500
          S-SQUARED =    0.764
          --------------------

  ----- ALPHA SET ----- 

          ------------
          EIGENVECTORS
          ------------

                      1          2          3          4          5
                  -10.2290   -10.2018    -0.7671    -0.5780    -0.4646
                     A          A          A          A          A   
    1  C  1  S    0.012200   1.009650  -0.019681   0.011338  -0.002211
    2  C  1  S   -0.001519   0.022160   0.316347  -0.227079   0.001121
    3  C  1  S    0.040218  -0.073375   0.095890  -0.324547  -0.032927
    4  C  1  X   -0.000013   0.000009   0.000002  -0.000642   0.000290
    5  C  1  Y   -0.000025  -0.000008   0.007710   0.031587   0.341336
    6  C  1  Z   -0.001007  -0.000345   0.110835   0.206916  -0.209556
    7  C  1  X    0.000127   0.000029  -0.000317  -0.000626  -0.000843
    8  C  1  Y   -0.001350  -0.000248   0.024263   0.027014  -0.016728
    9  C  1  Z    0.038648  -0.008952  -0.029630  -0.241969   0.039796
   10  C  1 XX    0.000217  -0.001628  -0.006295   0.001494  -0.001721
   11  C  1 YY    0.000860   0.000840  -0.007591  -0.011326   0.008470
   12  C  1 ZZ   -0.001077   0.000788   0.013885   0.009832  -0.006750
   13  C  1 XY    0.000010   0.000017  -0.000037  -0.000072   0.000069
   14  C  1 XZ   -0.000005   0.000006   0.000028  -0.000223  -0.000260
   15  C  1 YZ    0.000473   0.000045   0.000207   0.002352  -0.006059
   16  C  1  S    0.015268  -0.033973   0.016528   0.138261  -0.060033
   17  C  1  X    0.000012   0.000002  -0.000143  -0.000256  -0.000420
   18  C  1  Y    0.000770   0.000823  -0.003683   0.009005  -0.058844
   19  C  1  Z    0.006209  -0.003705  -0.001946   0.011833  -0.008671
   20  C  1 XX   -0.002133   0.004868   0.006389  -0.007225  -0.006266
   21  C  1 YY   -0.004478   0.001484  -0.008187   0.105828  -0.044435
   22  C  1 ZZ    0.006611  -0.006352   0.001798  -0.098603   0.050701
   23  C  1 XY    0.000002  -0.000007  -0.000702  -0.000158  -0.001103
   24  C  1 XZ    0.000018  -0.000008   0.000076   0.000085   0.000768
   25  C  1 YZ   -0.003135  -0.001063   0.024854   0.019182   0.104901
   26  C  2  S    1.009987  -0.013779  -0.017159  -0.006453  -0.000325
   27  C  2  S    0.022732  -0.001371   0.307106   0.268941  -0.070337
   28  C  2  S   -0.089924   0.024511   0.253316   0.493059  -0.240690
   29  C  2  X   -0.000057  -0.000006  -0.001400  -0.004254  -0.003516
   30  C  2  Y    0.000900   0.000106   0.024343   0.097746   0.255161
   31  C  2  Z   -0.000220   0.000913  -0.128380   0.119360   0.163109
   32  C  2  X    0.000191   0.000073   0.001140   0.001751  -0.000140
   33  C  2  Y   -0.003197  -0.001147  -0.057807  -0.092723   0.008662
   34  C  2  Z    0.030731  -0.016867  -0.091440  -0.220427   0.063077
   35  C  2 XX   -0.000855   0.000673  -0.011446  -0.001417  -0.000463
   36  C  2 YY    0.000518   0.000641  -0.003913   0.009837   0.005699
   37  C  2 ZZ    0.000337  -0.001314   0.015359  -0.008420  -0.005235
   38  C  2 XY   -0.000038  -0.000007   0.000154  -0.000189  -0.000461
   39  C  2 XZ   -0.000038   0.000001   0.000033  -0.000224  -0.000228
   40  C  2 YZ    0.000889   0.000039  -0.006122  -0.001649  -0.009714
   41  C  2  S   -0.029048   0.019821  -0.018896  -0.118468   0.021861
   42  C  2  X    0.000032   0.000040   0.000237   0.000779   0.000225
   43  C  2  Y   -0.001411  -0.001331  -0.000290  -0.026855   0.018168
   44  C  2  Z    0.004238  -0.005767   0.006652   0.004870  -0.013219
   45  C  2 XX    0.005994  -0.001052  -0.006854   0.006280   0.001220
   46  C  2 YY    0.004298  -0.001757  -0.017764  -0.059720  -0.008202
   47  C  2 ZZ   -0.010293   0.002809   0.024618   0.053440   0.006982
   48  C  2 XY    0.000033   0.000004   0.001191   0.001621   0.001035
   49  C  2 XZ    0.000116   0.000018   0.000210   0.000580   0.000579
   50  C  2 YZ   -0.004268  -0.001156   0.008733  -0.022287   0.013130
   51  H  3  S   -0.000660  -0.000100   0.124078   0.258979   0.193946
   52  H  3  S    0.021381   0.007203   0.065038   0.272424   0.108028
   53  H  3  X   -0.000058   0.000007   0.000419   0.000737   0.000473
   54  H  3  Y    0.001717  -0.000008  -0.012731  -0.016834  -0.005886
   55  H  3  Z    0.000737   0.000183  -0.011289  -0.009991  -0.005260
   56  H  3  S    0.001302   0.001932   0.003505   0.025911   0.010333
   57  H  3  X    0.000290   0.000090  -0.000046   0.002611  -0.000048
   58  H  3  Y   -0.007702  -0.002222  -0.007740  -0.042326  -0.011791
   59  H  3  Z   -0.002016  -0.000915  -0.017540  -0.029531  -0.010593
   60  H  4  S   -0.000348  -0.000854   0.116818  -0.228997  -0.141532
   61  H  4  S    0.017768   0.021920  -0.010671  -0.217776  -0.199148
   62  H  4  X   -0.000000  -0.000013   0.000113  -0.000247  -0.000119
   63  H  4  Y   -0.000211  -0.001550   0.014396  -0.016889   0.000579
   64  H  4  Z   -0.000610  -0.001015   0.012531  -0.005349  -0.009990
   65  H  4  S    0.001773   0.002007   0.000053  -0.012807  -0.041646
   66  H  4  X    0.000043   0.000069  -0.000235  -0.000711  -0.000837
   67  H  4  Y    0.004849   0.006797  -0.009319  -0.020712  -0.049766
   68  H  4  Z    0.002435   0.003030   0.008892  -0.033918   0.011182
   69  H  5  S   -0.000191  -0.000915   0.126428  -0.202961   0.341287
   70  H  5  S    0.009343   0.019035   0.014774  -0.225178   0.435207
   71  H  5  X   -0.000005   0.000004  -0.000069   0.000117  -0.000120
   72  H  5  Y   -0.000078   0.001520  -0.014504   0.016631  -0.010241
   73  H  5  Z   -0.000420  -0.000947   0.011306  -0.004938   0.005120
   74  H  5  S    0.001699   0.001129   0.002201  -0.013760   0.045634
   75  H  5  X   -0.000031  -0.000035   0.000441   0.000814   0.000171
   76  H  5  Y   -0.002371  -0.006015   0.000676   0.020072  -0.072553
   77  H  5  Z    0.001985   0.002964  -0.002007  -0.053603   0.040807

                      6          7          8          9         10
                   -0.4138    -0.2852    -0.2731    -0.0196    -0.0019
                     A          A          A          A          A   
    1  C  1  S    0.000018  -0.000073   0.000593   0.000109  -0.002994
    2  C  1  S   -0.036322  -0.007088   0.050061   0.002012   0.084529
    3  C  1  S   -0.170214  -0.004239   0.022450   0.004295   0.345803
    4  C  1  X   -0.005450   0.389490   0.046100   0.403646  -0.000687
    5  C  1  Y   -0.254928   0.011925  -0.134173  -0.003607   0.029389
    6  C  1  Z   -0.320111  -0.018166   0.111918   0.000802  -0.096158
    7  C  1  X   -0.001699   0.214433   0.026513   0.338857  -0.001046
    8  C  1  Y    0.060517  -0.005973   0.032155  -0.001186   0.042218
    9  C  1  Z   -0.092494   0.001625  -0.021726   0.000714  -0.283548
   10  C  1 XX   -0.001156   0.000012   0.000534   0.000074   0.000938
   11  C  1 YY    0.010670   0.000132  -0.000643   0.000010  -0.002785
   12  C  1 ZZ   -0.009515  -0.000144   0.000109  -0.000084   0.001847
   13  C  1 XY    0.000006   0.000616   0.000037   0.000046   0.000047
   14  C  1 XZ   -0.000489   0.021546   0.002556  -0.030078  -0.000042
   15  C  1 YZ    0.013681  -0.004001   0.040301  -0.000916   0.001417
   16  C  1  S   -0.039008  -0.021217   0.156388  -0.001779   1.299380
   17  C  1  X   -0.000160   0.028503   0.004006   0.564007   0.002770
   18  C  1  Y    0.051225  -0.002099   0.019968  -0.004622   0.037469
   19  C  1  Z   -0.015033  -0.005599   0.039714  -0.002517  -0.297389
   20  C  1 XX    0.000105   0.000652  -0.005619  -0.000286  -0.039363
   21  C  1 YY   -0.044214  -0.004229   0.028824   0.000078   0.024908
   22  C  1 ZZ    0.044108   0.003577  -0.023205   0.000208   0.014455
   23  C  1 XY   -0.001483   0.004510   0.000357  -0.003301   0.000326
   24  C  1 XZ   -0.000228   0.003757   0.000050  -0.041885  -0.000023
   25  C  1 YZ   -0.051668   0.003263  -0.034969   0.002318   0.026953
   26  C  2  S   -0.000888  -0.000044  -0.000784   0.000078  -0.002534
   27  C  2  S    0.030690   0.020855  -0.150213  -0.003793   0.056059
   28  C  2  S   -0.055251   0.040999  -0.310062  -0.009188   0.366843
   29  C  2  X   -0.008929   0.439857   0.049415  -0.411692  -0.001236
   30  C  2  Y    0.035404  -0.048487   0.471951  -0.008667   0.043707
   31  C  2  Z    0.374610   0.038350  -0.253603  -0.004310   0.082561
   32  C  2  X   -0.000238   0.254244   0.031871  -0.348746  -0.004081
   33  C  2  Y   -0.066457  -0.022153   0.241387  -0.010458   0.098758
   34  C  2  Z    0.044732   0.029755  -0.220966  -0.002520  -0.007142
   35  C  2 XX   -0.001606   0.000178  -0.004810   0.000177  -0.001695
   36  C  2 YY    0.011040   0.000363   0.000050  -0.000019  -0.004878
   37  C  2 ZZ   -0.009434  -0.000540   0.004760  -0.000157   0.006573
   38  C  2 XY   -0.000404  -0.000465  -0.000808  -0.000087   0.000040
   39  C  2 XZ   -0.000161  -0.020295  -0.002485  -0.032140   0.000011
   40  C  2 YZ    0.017770  -0.002087   0.020286   0.000658  -0.003602
   41  C  2  S   -0.014105   0.033775  -0.259502  -0.003484   0.870669
   42  C  2  X    0.000924   0.031141   0.004243  -0.515890  -0.007289
   43  C  2  Y   -0.035857  -0.001900   0.023825  -0.004984   0.190736
   44  C  2  Z   -0.015328  -0.001544   0.007099  -0.005007   0.148308
   45  C  2 XX   -0.004083  -0.001233   0.006872   0.000128  -0.039502
   46  C  2 YY   -0.036936   0.003002  -0.022880  -0.000338  -0.012607
   47  C  2 ZZ    0.041019  -0.001769   0.016008   0.000211   0.052109
   48  C  2 XY    0.002193  -0.001366   0.000195   0.008357  -0.001378
   49  C  2 XZ    0.000394  -0.007166  -0.000672  -0.037644  -0.000754
   50  C  2 YZ   -0.017150   0.000824  -0.012038   0.001988   0.033284
   51  H  3  S    0.233098  -0.021688   0.194815   0.008245   0.005296
   52  H  3  S    0.278256  -0.028038   0.248636   0.008317  -0.358481
   53  H  3  X    0.000154   0.015541   0.002174  -0.020932   0.000374
   54  H  3  Y   -0.009261  -0.000363   0.006827  -0.000370  -0.010677
   55  H  3  Z    0.001041   0.002253  -0.015789  -0.000175  -0.001566
   56  H  3  S    0.036875  -0.002310   0.027569   0.009168  -0.899510
   57  H  3  X    0.001114   0.015108   0.003548  -0.053578  -0.001343
   58  H  3  Y   -0.038765   0.002394  -0.017769   0.001228   0.031724
   59  H  3  Z   -0.036448   0.004214  -0.028951   0.000432   0.033056
   60  H  4  S    0.324766  -0.013174   0.145381  -0.004327   0.006835
   61  H  4  S    0.390725  -0.017082   0.193274  -0.007562  -0.404391
   62  H  4  X   -0.000049   0.014320   0.001746   0.021807   0.000071
   63  H  4  Y    0.009652  -0.000003  -0.000837  -0.000043   0.009660
   64  H  4  Z    0.003104  -0.000718   0.005085   0.000222   0.002024
   65  H  4  S    0.035711  -0.003560   0.039735  -0.014443  -0.637580
   66  H  4  X    0.000319   0.015592   0.002168   0.045323  -0.001019
   67  H  4  Y    0.054968  -0.003823   0.035452  -0.000085  -0.063724
   68  H  4  Z    0.052165  -0.000260   0.003396   0.001912  -0.016894
   69  H  5  S   -0.072211   0.023080  -0.208800   0.002741   0.003853
   70  H  5  S   -0.183060   0.037357  -0.335727   0.005530  -0.420235
   71  H  5  X   -0.000118   0.014261   0.001766   0.022662  -0.000033
   72  H  5  Y   -0.003196  -0.000152  -0.000100  -0.000104  -0.012232
   73  H  5  Z   -0.010873  -0.000116   0.000264  -0.000146   0.003419
   74  H  5  S   -0.043071   0.003289  -0.041727   0.004044  -1.138542
   75  H  5  X    0.001151   0.012651   0.002137   0.052836   0.000338
   76  H  5  Y    0.051000  -0.004708   0.042964  -0.000225   0.036506
   77  H  5  Z   -0.005791   0.003273  -0.022893  -0.001078  -0.024944

                     11         12         13         14         15
                    0.0149     0.0250     0.0627     0.0712     0.0790
                     A          A          A          A          A   
    1  C  1  S   -0.001257   0.002375   0.001012   0.007695   0.002918
    2  C  1  S    0.067556  -0.017200  -0.001445  -0.011983   0.044146
    3  C  1  S    0.184859  -0.128386  -0.054925  -0.389511   0.153427
    4  C  1  X   -0.001835  -0.002095   0.171835  -0.016717   0.001752
    5  C  1  Y   -0.067260  -0.118553   0.001552   0.037084   0.011419
    6  C  1  Z   -0.036302   0.005132   0.000734   0.013834   0.054267
    7  C  1  X   -0.002434  -0.005221   0.199195  -0.018340  -0.001254
    8  C  1  Y   -0.171148  -0.371970   0.002932   0.101398   0.010121
    9  C  1  Z   -0.273548   0.105302  -0.010212   0.031575  -0.046651
   10  C  1 XX    0.002807  -0.003171  -0.000487  -0.007379  -0.006797
   11  C  1 YY    0.004859  -0.001733   0.000127   0.001045  -0.010952
   12  C  1 ZZ   -0.007667   0.004904   0.000359   0.006334   0.017749
   13  C  1 XY   -0.000115   0.000000  -0.000874   0.000104  -0.000099
   14  C  1 XZ    0.000327  -0.000026   0.006131  -0.000335  -0.000102
   15  C  1 YZ   -0.004803  -0.003816  -0.000982  -0.010506   0.003005
   16  C  1  S    0.432788  -1.737234  -1.194905 -10.808845   1.496029
   17  C  1  X   -0.016235  -0.010435  -0.624999   0.071826  -0.006203
   18  C  1  Y   -0.201381  -1.941527   0.095426   0.428214  -0.493304
   19  C  1  Z   -0.532086  -0.365294  -0.502778  -4.813666  -1.566262
   20  C  1 XX   -0.010941   0.016543   0.008292   0.081352   0.022923
   21  C  1 YY    0.022439  -0.051226  -0.011964  -0.153600   0.016920
   22  C  1 ZZ   -0.011499   0.034683   0.003672   0.072248  -0.039843
   23  C  1 XY   -0.000698   0.000643   0.023897  -0.003136   0.001489
   24  C  1 XZ    0.000954  -0.000307   0.040684  -0.004488   0.000641
   25  C  1 YZ   -0.043310   0.099851  -0.004045   0.004472   0.114525
   26  C  2  S   -0.001252  -0.000748  -0.001009  -0.005486   0.005496
   27  C  2  S   -0.072976   0.048004   0.003760   0.040726   0.030550
   28  C  2  S   -0.230689   0.244089   0.066375   0.430309   0.052256
   29  C  2  X    0.004932  -0.000175   0.127790  -0.009816   0.000515
   30  C  2  Y   -0.085132  -0.046013  -0.011425  -0.141915   0.061157
   31  C  2  Z   -0.027912   0.023384   0.001701   0.004580  -0.075679
   32  C  2  X    0.009448  -0.002980   0.144774  -0.022776   0.005930
   33  C  2  Y   -0.159828   0.092888   0.025174   0.115253  -0.142677
   34  C  2  Z   -0.250119   0.149182  -0.007000   0.043370  -0.065026
   35  C  2 XX   -0.003383   0.001486  -0.000230   0.001427  -0.010032
   36  C  2 YY   -0.001781   0.002136   0.000370  -0.000564  -0.013462
   37  C  2 ZZ    0.005164  -0.003622  -0.000140  -0.000863   0.023494
   38  C  2 XY   -0.000269   0.000009   0.003907  -0.000216   0.000107
   39  C  2 XZ    0.000094   0.000179  -0.013354   0.001269   0.000022
   40  C  2 YZ    0.008180   0.007573   0.000227   0.001979  -0.006678
   41  C  2  S   -0.495433   2.272349   1.223959  11.107123  -0.297196
   42  C  2  X    0.029520  -0.006842  -0.590188   0.072027  -0.011891
   43  C  2  Y   -0.556276   1.022640  -0.029820   0.318834  -0.060972
   44  C  2  Z   -0.626116  -0.231123  -0.481281  -4.176679   1.877507
   45  C  2 XX    0.007753  -0.041114  -0.007223  -0.075987   0.063244
   46  C  2 YY   -0.063188   0.032893   0.005897   0.084454  -0.027413
   47  C  2 ZZ    0.055435   0.008220   0.001326  -0.008466  -0.035832
   48  C  2 XY    0.003070  -0.001955  -0.039804  -0.001404   0.000594
   49  C  2 XZ    0.002166  -0.002500  -0.015423   0.000028  -0.002149
   50  C  2 YZ   -0.072513   0.084995   0.002768   0.059549   0.083025
   51  H  3  S    0.016311   0.015050  -0.000674  -0.022670  -0.017468
   52  H  3  S    0.671669  -0.545664  -0.090526  -0.847582   0.216599
   53  H  3  X   -0.000278   0.000164  -0.005773   0.000255   0.000249
   54  H  3  Y    0.010273   0.000132   0.000934   0.009761  -0.008455
   55  H  3  Z    0.008202  -0.000490   0.000237   0.005345   0.007042
   56  H  3  S    2.557211  -1.430163   0.356401   3.477226  -0.155077
   57  H  3  X    0.003393  -0.005853   0.038314  -0.011001   0.003715
   58  H  3  Y   -0.083212   0.132548   0.017575   0.135901  -0.084829
   59  H  3  Z   -0.021320   0.003435   0.020025   0.140297  -0.096929
   60  H  4  S   -0.009523   0.012717  -0.001901  -0.023470  -0.024289
   61  H  4  S   -0.446438  -0.454336   0.059722   0.589259  -0.346755
   62  H  4  X   -0.000079  -0.000000  -0.003529   0.000418   0.000047
   63  H  4  Y    0.007618   0.002784   0.000208  -0.000179   0.003652
   64  H  4  Z    0.007138   0.002824  -0.000805  -0.010510  -0.011215
   65  H  4  S   -2.038573  -3.109265   0.030364   0.444049  -1.129030
   66  H  4  X   -0.000997  -0.000110   0.070334  -0.006434   0.001290
   67  H  4  Y   -0.060131  -0.053130   0.001503   0.032946  -0.011918
   68  H  4  Z   -0.008032  -0.053074   0.011298   0.144398   0.029984
   69  H  5  S    0.002768  -0.002478   0.002018   0.025363  -0.038339
   70  H  5  S   -0.161054   0.859961   0.034361   0.405443   0.097047
   71  H  5  X   -0.000235  -0.000017  -0.004195   0.000351  -0.000078
   72  H  5  Y   -0.002489   0.004216   0.000003  -0.001362  -0.006300
   73  H  5  Z    0.003258  -0.007299  -0.000296  -0.002377  -0.014334
   74  H  5  S   -0.492155   3.802753  -0.437625  -4.334730   0.586172
   75  H  5  X    0.000764  -0.001309   0.030684  -0.005612   0.000156
   76  H  5  Y    0.063853  -0.091685  -0.001182  -0.002439  -0.090870
   77  H  5  Z    0.051354   0.068424   0.011313   0.100488   0.038079

                     16         17         18         19         20
                    0.1117     0.1127     0.1167     0.1279     0.1459
                     A          A          A          A          A   
    1  C  1  S    0.005592   0.001837  -0.038826  -0.014853  -0.015065
    2  C  1  S   -0.058539  -0.011194  -0.204850  -0.018982  -0.121039
    3  C  1  S   -0.993448  -0.243181   0.321571   0.524407   0.536902
    4  C  1  X   -0.053626   0.230372   0.001461   0.005172  -0.001271
    5  C  1  Y    0.110963   0.024106  -0.084348   0.237432   0.040485
    6  C  1  Z    0.002427   0.000232   0.121573   0.000585   0.131128
    7  C  1  X   -0.045935   0.181720  -0.000315  -0.005411  -0.008276
    8  C  1  Y   -0.413945  -0.097997   0.296158  -0.930235  -0.171264
    9  C  1  Z   -1.215644  -0.283837  -1.553498  -0.380312   1.547104
   10  C  1 XX    0.001026  -0.000032   0.019899   0.016715  -0.039564
   11  C  1 YY   -0.000289   0.000047   0.003768  -0.008225   0.048891
   12  C  1 ZZ   -0.000736  -0.000014  -0.023667  -0.008490  -0.009327
   13  C  1 XY   -0.000673   0.001121  -0.000135   0.000410   0.000101
   14  C  1 XZ    0.001131  -0.006798  -0.000003   0.000030   0.000134
   15  C  1 YZ    0.023754   0.005173  -0.007269   0.009296  -0.016639
   16  C  1  S   -5.607822  -1.258682   5.084676   5.293187   0.189044
   17  C  1  X    0.480739  -2.184812  -0.015273  -0.035949  -0.006086
   18  C  1  Y   -0.295549  -0.077492   1.845936  -6.050494  -2.452656
   19  C  1  Z   -3.546315  -0.794671  -1.935445   1.712533   0.576936
   20  C  1 XX    0.045401   0.012919  -0.160785  -0.037205  -0.096116
   21  C  1 YY    0.181652   0.040237   0.343277   0.202275  -0.660615
   22  C  1 ZZ   -0.227053  -0.053156  -0.182492  -0.165070   0.756731
   23  C  1 XY    0.007525  -0.033079   0.002789   0.002232  -0.001754
   24  C  1 XZ    0.014854  -0.055310  -0.001488  -0.000007   0.001593
   25  C  1 YZ   -0.059852  -0.014305  -0.015081   0.330891   0.323306
   26  C  2  S    0.008313   0.002597  -0.036043  -0.026364   0.024683
   27  C  2  S    0.109794   0.026436  -0.112626  -0.099412   0.013432
   28  C  2  S    0.480472   0.093188   1.284931   0.782262  -2.187719
   29  C  2  X    0.048589  -0.236449  -0.001757  -0.001331   0.005471
   30  C  2  Y    0.177960   0.036900  -0.007405   0.001669  -0.092382
   31  C  2  Z    0.058690   0.012816  -0.085110  -0.008666  -0.067442
   32  C  2  X    0.071190  -0.217854  -0.009091  -0.014346   0.009582
   33  C  2  Y   -0.353761  -0.107197   0.135464   0.402513  -0.513377
   34  C  2  Z   -1.346931  -0.328147  -0.893036   0.124611   1.090164
   35  C  2 XX   -0.004669  -0.001027   0.005453   0.013610  -0.011847
   36  C  2 YY    0.005940   0.001040   0.002426  -0.007887   0.017796
   37  C  2 ZZ   -0.001271  -0.000013  -0.007879  -0.005723  -0.005949
   38  C  2 XY    0.000664  -0.005955  -0.000374   0.000294   0.000121
   39  C  2 XZ    0.000816  -0.004054   0.000093  -0.000197   0.000461
   40  C  2 YZ   -0.015864  -0.003042   0.004061  -0.017172   0.001498
   41  C  2  S    4.042654   0.773507   2.620389  -0.911775  -1.968592
   42  C  2  X   -0.409272   2.200113   0.027120  -0.044901  -0.009849
   43  C  2  Y   -2.742428  -0.640831  -0.760957   3.501344   0.704748
   44  C  2  Z   -4.128611  -0.941593  -0.136467   2.246926   1.089617
   45  C  2 XX    0.008080   0.001395  -0.128123  -0.071513  -0.023794
   46  C  2 YY   -0.301797  -0.071187  -0.129188   0.039936   0.196131
   47  C  2 ZZ    0.293717   0.069792   0.257311   0.031577  -0.172337
   48  C  2 XY   -0.000892   0.063512  -0.001856  -0.002856   0.000193
   49  C  2 XZ    0.027455  -0.081006  -0.003032  -0.005709  -0.004526
   50  C  2 YZ   -0.241192  -0.060558   0.095504   0.144892   0.186388
   51  H  3  S   -0.021753   0.000342   0.010449  -0.087305   0.102092
   52  H  3  S    2.200636   0.583771  -0.540688  -1.784990   0.607799
   53  H  3  X    0.000681  -0.000442  -0.000366  -0.000483   0.000236
   54  H  3  Y   -0.019266  -0.004996   0.011445   0.011018  -0.008260
   55  H  3  Z   -0.011776  -0.003220  -0.001858   0.015081  -0.005192
   56  H  3  S    6.041765   1.441683   0.155324  -3.841931  -0.772147
   57  H  3  X    0.043377  -0.112226  -0.009600  -0.017069   0.004059
   58  H  3  Y   -0.599027  -0.154057   0.247269   0.280826   0.213203
   59  H  3  Z   -0.378508  -0.095028   0.067853   0.161104  -0.141138
   60  H  4  S    0.027762   0.004300  -0.002390  -0.058018   0.099917
   61  H  4  S   -1.051724  -0.237947  -1.676928  -3.137166   0.714070
   62  H  4  X    0.000059  -0.000277  -0.000084  -0.000117  -0.000207
   63  H  4  Y   -0.010649  -0.002546  -0.009498  -0.022828  -0.024192
   64  H  4  Z   -0.008712  -0.002099  -0.000932  -0.011050   0.005785
   65  H  4  S   -3.813938  -0.861444  -0.768939  -5.116045  -1.972544
   66  H  4  X   -0.019044   0.087984  -0.003203  -0.010053   0.001315
   67  H  4  Y   -0.323147  -0.072212  -0.441018  -0.570050  -0.476528
   68  H  4  Z   -0.298421  -0.064637  -0.206121  -0.569116   0.398861
   69  H  5  S   -0.020142  -0.002213  -0.017641  -0.022884   0.225927
   70  H  5  S   -0.040641   0.006073  -2.732438   1.094816   2.822518
   71  H  5  X   -0.000326   0.001502   0.000189  -0.000009  -0.000056
   72  H  5  Y   -0.007879  -0.002123   0.026084  -0.016549   0.011484
   73  H  5  Z    0.000642   0.000193  -0.013671   0.014696  -0.000220
   74  H  5  S   -1.211451  -0.272203  -4.240338   6.556220   2.816970
   75  H  5  X   -0.027115   0.118593   0.002565   0.003635  -0.003650
   76  H  5  Y   -0.006855  -0.002659   0.669493  -0.420887   0.141423
   77  H  5  Z    0.102099   0.024070  -0.422278   0.163455   0.435765

                     21         22         23         24         25
                    0.1685     0.1954     0.2193     0.2532     0.2857
                     A          A          A          A          A   
    1  C  1  S    0.049132   0.018755   0.000442  -0.005178  -0.010019
    2  C  1  S    0.157821   0.012511   0.000556  -0.030523  -0.137238
    3  C  1  S   -2.129257  -0.562184   0.015001   0.751640   0.399498
    4  C  1  X   -0.005038   0.003870   0.001868  -0.001106   0.002523
    5  C  1  Y   -0.066014   0.123602  -0.019522  -0.199641   0.008614
    6  C  1  Z   -0.061653  -0.020536   0.001043   0.075156  -0.015543
    7  C  1  X   -0.007484  -0.009923  -0.068263   0.001307   0.006818
    8  C  1  Y   -0.093107   0.602432  -0.033909  -0.226696   0.088811
    9  C  1  Z   -1.014414   1.220319   0.085126   0.740818   2.420620
   10  C  1 XX    0.014228  -0.024862   0.000436  -0.015344  -0.023727
   11  C  1 YY   -0.005843   0.025870  -0.001060   0.017342  -0.073761
   12  C  1 ZZ   -0.008385  -0.001008   0.000625  -0.001998   0.097487
   13  C  1 XY   -0.001807   0.001496   0.047385  -0.003166   0.000265
   14  C  1 XZ    0.000493  -0.000424  -0.002663  -0.000557   0.000858
   15  C  1 YZ   -0.037640   0.037341  -0.005248  -0.031579  -0.013041
   16  C  1  S  -18.286013 -20.818936  -0.818916 -10.340020   2.304067
   17  C  1  X   -0.019343   0.005052   0.016411  -0.005284   0.009836
   18  C  1  Y   -0.148263   2.486888  -0.118309  -1.746141  -0.969804
   19  C  1  Z   -6.195581  -5.903716  -0.248245  -2.265213   4.008421
   20  C  1 XX    0.179596   0.120320  -0.008152   0.085662  -0.276254
   21  C  1 YY    0.141138  -0.559644  -0.006062  -0.205563   0.125273
   22  C  1 ZZ   -0.320734   0.439324   0.014214   0.119901   0.150981
   23  C  1 XY    0.001295  -0.003560  -0.178411   0.020748  -0.011813
   24  C  1 XZ    0.000525  -0.012336  -0.014802   0.007031  -0.005689
   25  C  1 YZ    0.448229  -0.194865   0.075367   0.859363   0.210871
   26  C  2  S   -0.045695  -0.017629  -0.000381  -0.004347   0.034222
   27  C  2  S   -0.197980  -0.048677  -0.001851  -0.000494   0.163061
   28  C  2  S    1.619247  -0.512893   0.002368  -0.349212  -0.652602
   29  C  2  X    0.006655  -0.009737  -0.040157  -0.003136   0.005756
   30  C  2  Y   -0.039025   0.063537   0.015556   0.287813  -0.039062
   31  C  2  Z   -0.109866  -0.006171  -0.004288   0.021306  -0.249979
   32  C  2  X    0.002919  -0.029827  -0.234211  -0.016498   0.003544
   33  C  2  Y   -0.152716   0.792919   0.034958   0.384099   0.421615
   34  C  2  Z   -1.208242   1.125790   0.071099   0.781053   1.586322
   35  C  2 XX   -0.016296   0.012194  -0.000870   0.014633   0.029381
   36  C  2 YY    0.011586   0.003530   0.000819  -0.021616   0.021736
   37  C  2 ZZ    0.004709  -0.015724   0.000051   0.006983  -0.051117
   38  C  2 XY   -0.001955   0.001526   0.021985  -0.000322  -0.001315
   39  C  2 XZ    0.000065   0.001216   0.009178  -0.000203  -0.000536
   40  C  2 YZ    0.017974  -0.052535   0.003661   0.010186  -0.007603
   41  C  2  S   18.506984  20.969748   0.838264  10.984762  -3.993186
   42  C  2  X    0.068960   0.010254  -0.166346  -0.011560  -0.026704
   43  C  2  Y   -1.679905  -1.008312   0.011205   1.604328   1.299273
   44  C  2  Z   -6.136610  -5.245214  -0.287817  -2.411481   1.598919
   45  C  2 XX   -0.185572  -0.163361   0.010314  -0.003872   0.186720
   46  C  2 YY   -0.167484   0.200524   0.019027   0.199953   0.183663
   47  C  2 ZZ    0.353056  -0.037163  -0.029341  -0.196081  -0.370383
   48  C  2 XY   -0.010292   0.001833   0.255711  -0.027086   0.005862
   49  C  2 XZ   -0.000099  -0.024403  -0.111653   0.006124  -0.002555
   50  C  2 YZ    0.337652   0.277308   0.041490   0.612944   0.334532
   51  H  3  S    0.177387  -0.180338   0.005802  -0.091605  -0.024262
   52  H  3  S   -0.268160  -3.016204  -0.219025  -2.916126  -2.155131
   53  H  3  X   -0.000058  -0.000493  -0.004110   0.000606  -0.000313
   54  H  3  Y    0.013075  -0.002320   0.000663  -0.003110   0.002458
   55  H  3  Z    0.004959  -0.007255   0.000106  -0.004600  -0.012348
   56  H  3  S    3.143197   1.722616   0.171023   0.159388  -2.681070
   57  H  3  X   -0.032039  -0.011239   0.521384  -0.037145  -0.074125
   58  H  3  Y    0.597909   0.624520   0.041729  -0.240939   0.714286
   59  H  3  Z    0.158269  -0.197757   0.061415   0.216897   0.240589
   60  H  4  S   -0.159203   0.216352  -0.011573   0.014170   0.017131
   61  H  4  S   -0.602408   3.604573  -0.091899  -0.778413   1.188254
   62  H  4  X   -0.000067   0.000323  -0.000688   0.000343  -0.000004
   63  H  4  Y    0.019848   0.001721   0.001154  -0.000027   0.015439
   64  H  4  Z    0.022204  -0.001615   0.002302   0.024491  -0.008893
   65  H  4  S   -2.007394   0.917014  -0.109019  -0.456631   0.905914
   66  H  4  X    0.016637  -0.005467  -0.731665   0.068366  -0.025345
   67  H  4  Y    0.134950   0.195053   0.007287  -0.338931   0.592212
   68  H  4  Z    0.221845   0.132418   0.050507   0.417582  -0.845171
   69  H  5  S    0.029560  -0.054646   0.012780   0.155937   0.047137
   70  H  5  S    1.539405   1.086337   0.256158   2.736723   1.921020
   71  H  5  X   -0.000312   0.000249   0.003161  -0.000183   0.000088
   72  H  5  Y   -0.015762   0.002035   0.000478   0.016374  -0.012604
   73  H  5  Z   -0.007803   0.016113  -0.002501  -0.017823  -0.017522
   74  H  5  S   -1.438712  -3.093586  -0.062405   0.013042   2.701729
   75  H  5  X   -0.028088   0.019412   0.832197  -0.063600  -0.001731
   76  H  5  Y   -0.471118  -0.050363  -0.043759  -0.030258  -0.833399
   77  H  5  Z   -0.035547   0.606028  -0.037841  -0.524651  -0.864012

                     26         27         28         29         30
                    0.3082     0.3151     0.3553     0.3769     0.4045
                     A          A          A          A          A   
    1  C  1  S   -0.005374  -0.029916  -0.000126  -0.019654   0.040284
    2  C  1  S   -0.023696  -0.126402  -0.000908  -0.058775  -0.017020
    3  C  1  S    0.226877   1.414143  -0.005392   1.772332  -2.131539
    4  C  1  X   -0.056835   0.014602  -0.246655  -0.000772  -0.002231
    5  C  1  Y   -0.025542  -0.137997   0.002850   0.279885   0.054949
    6  C  1  Z   -0.046697  -0.247955   0.000076  -0.076110  -0.000240
    7  C  1  X   -0.342174   0.046566  -0.969313   0.022136  -0.018223
    8  C  1  Y    0.067863   0.210906   0.019634   3.093614   0.298636
    9  C  1  Z    0.472069   2.245354  -0.052582   1.724588  -1.809741
   10  C  1 XX   -0.005041  -0.026407  -0.000173  -0.013429   0.018405
   11  C  1 YY   -0.002699   0.001794   0.000384   0.006308   0.008395
   12  C  1 ZZ    0.007740   0.024613  -0.000211   0.007121  -0.026800
   13  C  1 XY   -0.034343   0.005655   0.011015  -0.000401  -0.000586
   14  C  1 XZ   -0.017910   0.003279  -0.029611  -0.000226  -0.000457
   15  C  1 YZ   -0.004302  -0.022902  -0.000620  -0.050506  -0.009970
   16  C  1  S    1.402117   5.092757   0.033211   0.096166  -6.276148
   17  C  1  X   -0.096218   0.026640  -1.113255   0.036597  -0.024047
   18  C  1  Y   -0.708795  -3.554028   0.016877   4.838308   1.582946
   19  C  1  Z    0.484721   1.448504   0.011183  -0.072132  -1.788286
   20  C  1 XX   -0.033413  -0.076490   0.007444  -0.074867   0.529208
   21  C  1 YY   -0.096231  -0.548393   0.010039  -0.335348   0.610837
   22  C  1 ZZ    0.129644   0.624883  -0.017483   0.410215  -1.140045
   23  C  1 XY    0.510430  -0.093375  -0.225927   0.003555   0.031011
   24  C  1 XZ   -0.001699  -0.017165   0.076767   0.012512   0.004169
   25  C  1 YZ    0.187503   1.040059   0.015753   0.318600   0.270743
   26  C  2  S    0.006455   0.026838  -0.000249   0.010309   0.032364
   27  C  2  S    0.025808   0.106544  -0.000503   0.028170  -0.012558
   28  C  2  S   -0.338418  -1.513306   0.030768  -0.553100  -0.274576
   29  C  2  X   -0.110512   0.023924   0.044114  -0.000903   0.001777
   30  C  2  Y    0.004405   0.034025  -0.003957   0.034719  -0.203454
   31  C  2  Z   -0.004690   0.020420   0.000467  -0.017922   0.034599
   32  C  2  X   -0.626389   0.119948   0.445930  -0.046777   0.058631
   33  C  2  Y   -0.107981  -0.493777  -0.041893   0.171794  -2.264120
   34  C  2  Z    0.569709   2.933675  -0.048746   2.012348  -2.952558
   35  C  2 XX    0.004295   0.028059   0.000398   0.007274   0.005581
   36  C  2 YY    0.011553   0.050480  -0.000500   0.011091  -0.021158
   37  C  2 ZZ   -0.015848  -0.078539   0.000102  -0.018365   0.015576
   38  C  2 XY    0.034778  -0.006797  -0.010183  -0.000019   0.001682
   39  C  2 XZ    0.024455  -0.003405   0.015236  -0.000099   0.000421
   40  C  2 YZ   -0.003639  -0.020804  -0.000604   0.006163  -0.007444
   41  C  2  S   -1.135560  -4.089462  -0.079546   0.613332   0.717632
   42  C  2  X   -0.470884   0.027386   0.535660  -0.029863   0.073699
   43  C  2  Y    0.536749   2.588464  -0.023984  -0.625683  -2.752346
   44  C  2  Z    0.836323   3.849785   0.017640   0.607920  -1.907602
   45  C  2 XX    0.071924   0.349010   0.002713   0.145341   0.899808
   46  C  2 YY    0.054553   0.373249  -0.014814   0.768416  -0.962194
   47  C  2 ZZ   -0.126477  -0.722259   0.012101  -0.913758   0.062387
   48  C  2 XY   -0.358182   0.062753  -0.180733  -0.012119   0.055350
   49  C  2 XZ   -0.167134   0.003085   0.326956   0.003053   0.002520
   50  C  2 YZ    0.204174   1.133546   0.013534   0.726756   0.122901
   51  H  3  S   -0.008954  -0.019821   0.000424   0.053697  -0.034950
   52  H  3  S   -0.565339  -2.895253   0.090398  -3.270832   6.788001
   53  H  3  X    0.004864  -0.000526   0.000116   0.000014  -0.000002
   54  H  3  Y   -0.000234  -0.000617  -0.000069   0.000445   0.002011
   55  H  3  Z   -0.006806  -0.033922  -0.000044  -0.009617   0.008873
   56  H  3  S   -0.667882  -2.829346   0.000365  -0.568031   3.008509
   57  H  3  X    1.491600  -0.312982  -0.382279  -0.028488   0.079660
   58  H  3  Y    0.234979   1.013578  -0.018672   0.478360  -1.429202
   59  H  3  Z   -0.194749  -1.055508  -0.020806   0.741676  -0.886366
   60  H  4  S   -0.015899  -0.049847   0.001074   0.026390   0.039229
   61  H  4  S   -0.065819  -0.577759  -0.046768   4.299634   0.154942
   62  H  4  X    0.005054  -0.000472  -0.011959   0.000026  -0.000537
   63  H  4  Y    0.000582  -0.001085   0.000124   0.005069   0.003890
   64  H  4  Z    0.000504   0.004122   0.000233   0.002908   0.000780
   65  H  4  S   -0.237485  -1.304774   0.002865   4.139703   0.206711
   66  H  4  X    1.265522  -0.237981   0.719754   0.026433   0.053195
   67  H  4  Y    0.073320   0.132730  -0.034632  -0.100666  -0.293822
   68  H  4  Z    0.125512   0.771937  -0.007084   1.548699  -0.435293
   69  H  5  S    0.003940   0.045231   0.001680   0.008381   0.021686
   70  H  5  S    0.561035   3.276206  -0.011771  -2.666520   0.523983
   71  H  5  X   -0.006351   0.001221  -0.010050  -0.000098   0.000165
   72  H  5  Y    0.000614   0.008315   0.000408   0.014472   0.000543
   73  H  5  Z   -0.006223  -0.032261  -0.000201  -0.018196   0.001646
   74  H  5  S    0.781088   3.589827   0.012282  -3.852954  -0.954487
   75  H  5  X   -0.459573   0.069649   1.620146  -0.016858  -0.029697
   76  H  5  Y   -0.111799  -0.534704  -0.008388  -0.401794  -0.218107
   77  H  5  Z    0.045299   0.408401  -0.015168  -0.911428  -0.196304

                     31         32         33         34         35
                    0.4382     0.4435     0.4482     0.4763     0.4833
                     A          A          A          A          A   
    1  C  1  S    0.064988   0.012271   0.002129   0.021938  -0.004621
    2  C  1  S    0.031170  -0.049599  -0.002618  -0.025604   0.028870
    3  C  1  S   -4.186069   0.836883   0.151194  -2.181477   0.425199
    4  C  1  X    0.003005  -0.050263   0.244834   0.015506   0.042719
    5  C  1  Y    0.026452  -0.062123  -0.005355  -0.133918  -0.051508
    6  C  1  Z    0.081379  -0.003125   0.017124  -0.010983   0.058552
    7  C  1  X    0.014401  -0.299387   1.791578   0.089477   0.281685
    8  C  1  Y   -0.620013   1.186787   0.560814  -3.585339   0.840848
    9  C  1  Z    5.909363   3.733276   0.684353  -0.774122   1.032579
   10  C  1 XX    0.017872  -0.008624  -0.000044  -0.012894   0.001193
   11  C  1 YY   -0.026587  -0.005102  -0.001996   0.012829  -0.003553
   12  C  1 ZZ    0.008715   0.013727   0.002041   0.000065   0.002360
   13  C  1 XY   -0.000029  -0.001022   0.002002  -0.000158   0.004733
   14  C  1 XZ    0.000222   0.000663  -0.013810  -0.002430   0.030715
   15  C  1 YZ    0.020243   0.011908  -0.001623  -0.012348  -0.016103
   16  C  1  S   -6.818683  -3.884714  -1.349812   3.562206  -0.872270
   17  C  1  X   -0.002665  -0.161906   1.130601   0.062816  -0.165126
   18  C  1  Y   -0.598359   1.615501   0.451142  -0.772346   0.392441
   19  C  1  Z    1.106213   0.225307  -0.082842   0.785518  -0.025493
   20  C  1 XX    0.581802   0.256691   0.088455  -0.456881   0.031850
   21  C  1 YY   -1.946426  -0.766528  -0.123496   0.489257  -0.284206
   22  C  1 ZZ    1.364624   0.509837   0.035040  -0.032376   0.252356
   23  C  1 XY   -0.030456   0.032510  -0.260007  -0.023453   0.302565
   24  C  1 XZ   -0.007769   0.108642  -0.109777   0.065520  -1.404029
   25  C  1 YZ    0.619856  -2.602187  -0.437535  -0.143388  -0.471416
   26  C  2  S    0.062511   0.028686   0.001479   0.053757   0.010237
   27  C  2  S   -0.000064  -0.022905  -0.011478   0.013801  -0.022009
   28  C  2  S   -6.451166  -2.493998  -0.218546  -4.298726  -1.551286
   29  C  2  X    0.002887   0.025394  -0.252566  -0.019829   0.249884
   30  C  2  Y    0.127613   0.065225   0.009210  -0.136637  -0.005463
   31  C  2  Z    0.028992  -0.083551   0.003905  -0.176799   0.034195
   32  C  2  X    0.024905  -0.027040  -0.700652  -0.008824   1.511828
   33  C  2  Y   -0.724902   3.172421   0.514279  -1.447672   0.064207
   34  C  2  Z    3.068597   2.769361   0.579352  -2.355775   0.932499
   35  C  2 XX    0.033233  -0.000588  -0.000772  -0.010811  -0.001028
   36  C  2 YY   -0.012815   0.026632   0.004635   0.016613   0.004740
   37  C  2 ZZ   -0.020418  -0.026044  -0.003863  -0.005802  -0.003712
   38  C  2 XY    0.000821  -0.001716   0.004227  -0.000538  -0.004355
   39  C  2 XZ    0.000390   0.002065  -0.014970  -0.002220  -0.001357
   40  C  2 YZ   -0.020830   0.053659   0.009778   0.013487   0.012367
   41  C  2  S   -0.745257   1.305153   0.871688  -4.653014   0.559887
   42  C  2  X    0.013515   0.130552  -1.171818  -0.065487   0.528789
   43  C  2  Y    0.507529   0.038180  -0.054279  -0.241312  -0.085236
   44  C  2  Z   -0.228181  -0.128994  -0.139456   0.141879  -0.073695
   45  C  2 XX    0.039489   0.221803   0.056283  -0.141372  -0.096372
   46  C  2 YY    0.506577   1.361191   0.142738   0.101862  -0.047102
   47  C  2 ZZ   -0.546066  -1.582993  -0.199021   0.039510   0.143474
   48  C  2 XY    0.013370  -0.009791  -0.663097  -0.042365   0.957951
   49  C  2 XZ    0.012907  -0.192284   1.035279   0.100417   0.266479
   50  C  2 YZ   -0.374688  -0.831445  -0.035559  -0.358719   0.249444
   51  H  3  S   -0.094272   0.182419   0.034497   0.130179   0.063644
   52  H  3  S    1.212647  -3.132298  -0.811392   6.425095  -0.032745
   53  H  3  X    0.000248   0.001010  -0.017114  -0.001996   0.021715
   54  H  3  Y   -0.018915   0.012912   0.000951   0.029327   0.002857
   55  H  3  Z   -0.020789   0.024859   0.005056   0.003482   0.009918
   56  H  3  S   -0.037100  -0.197415  -0.033684   0.889731   0.033735
   57  H  3  X   -0.012498  -0.029685   0.742788   0.135810  -1.365717
   58  H  3  Y   -0.414985  -0.199744   0.151308  -3.224291  -0.013268
   59  H  3  Z   -0.099119   1.450007   0.176916  -0.981805  -0.595216
   60  H  4  S   -0.043558  -0.079981  -0.022615   0.015533  -0.086625
   61  H  4  S    6.146387   9.224201   2.101180  -5.690150   2.130486
   62  H  4  X    0.000087  -0.002414   0.016694   0.001368  -0.004678
   63  H  4  Y    0.007449  -0.017897  -0.002974   0.003859   0.002470
   64  H  4  Z   -0.005922  -0.012306   0.000516  -0.000627   0.014203
   65  H  4  S    1.411453   1.872247   0.442613  -0.871670   0.235114
   66  H  4  X   -0.006004   0.266022  -1.271302  -0.080296  -0.143794
   67  H  4  Y    1.111779   2.961530   0.620346  -1.574559   0.420262
   68  H  4  Z    1.834512   0.123321   0.066019  -1.205587   0.066506
   69  H  5  S   -0.178482   0.088377   0.017488   0.111722   0.030116
   70  H  5  S    9.086204  -2.513668  -0.784049   4.620688  -0.853903
   71  H  5  X    0.000243  -0.002850   0.007841   0.000157   0.012952
   72  H  5  Y   -0.006933  -0.005575  -0.001096   0.022610   0.002891
   73  H  5  Z    0.007248  -0.003856  -0.001932   0.002934  -0.004695
   74  H  5  S    1.541399  -0.524753  -0.211300   0.806885  -0.150733
   75  H  5  X   -0.005546   0.149711  -0.422459   0.015379  -1.108285
   76  H  5  Y   -2.101157   1.466759   0.371828  -2.528520   0.251751
   77  H  5  Z    1.138829   0.977122   0.027811   1.421344  -0.027039

                     36         37         38         39         40
                    0.4875     0.4930     0.5051     0.5566     0.5628
                     A          A          A          A          A   
    1  C  1  S    0.010175   0.104333  -0.025329   0.077566   0.015545
    2  C  1  S   -0.103249  -0.005092  -0.028626   0.023649   0.001424
    3  C  1  S   -1.532077  -8.291262   4.322246  -8.306897  -1.501678
    4  C  1  X    0.026682  -0.001912   0.000230   0.000399  -0.072120
    5  C  1  Y    0.166901   0.006807  -0.109212  -0.060561  -0.006684
    6  C  1  Z   -0.240113   0.324822  -0.089250  -0.139890  -0.031215
    7  C  1  X    0.242443  -0.000599   0.068115   0.194894  -1.355278
    8  C  1  Y   -0.253125  -0.915991  -7.077999  -0.123299  -0.148040
    9  C  1  Z   -2.691331  -2.625928   1.414596  -1.551853  -0.759496
   10  C  1 XX   -0.010870   0.008541  -0.006323   0.027032   0.004257
   11  C  1 YY    0.012750   0.031635  -0.008805  -0.008061  -0.000884
   12  C  1 ZZ   -0.001880  -0.040175   0.015128  -0.018971  -0.003373
   13  C  1 XY    0.002130   0.000648   0.000423   0.000340  -0.002687
   14  C  1 XZ    0.007064   0.001603   0.001414  -0.010141   0.054767
   15  C  1 YZ    0.053418  -0.002222   0.013593  -0.027860  -0.003386
   16  C  1  S    4.673764  -5.025287  -4.820102 -14.444856  -3.101539
   17  C  1  X   -0.003143  -0.018200  -0.000910   0.026467  -0.225317
   18  C  1  Y   -0.083647  -0.568464  -1.874939   0.898507   0.199103
   19  C  1  Z    0.399579  -0.191033  -0.986467  -4.768385  -1.028154
   20  C  1 XX   -0.322922   0.300969   0.559991  -0.052306   0.052995
   21  C  1 YY    0.452841   2.650071  -0.671534  -1.804745  -0.189304
   22  C  1 ZZ   -0.129919  -2.951040   0.111543   1.857051   0.136310
   23  C  1 XY    0.081922   0.040967   0.078423   0.213538  -1.600397
   24  C  1 XZ   -0.370956  -0.079233  -0.107083   0.343437  -2.135207
   25  C  1 YZ    0.724114   0.384117   0.272773   0.206320   0.072753
   26  C  2  S   -0.002571  -0.087748  -0.030899  -0.050377  -0.012293
   27  C  2  S    0.092092  -0.081566  -0.008917   0.132881   0.021778
   28  C  2  S    1.879784  10.062434   2.765377   2.851792   0.973905
   29  C  2  X    0.047921   0.009607   0.002477  -0.063766   0.311792
   30  C  2  Y    0.070027  -0.019856  -0.017199   0.001938  -0.000709
   31  C  2  Z   -0.195985   0.175582  -0.002895  -0.078247  -0.020923
   32  C  2  X    0.363444   0.038797   0.034705  -0.238192   1.406446
   33  C  2  Y   -0.622614   1.086906   3.269362   0.592493   0.014773
   34  C  2  Z   -2.961690  -3.042603   2.555023  -1.421921  -0.692031
   35  C  2 XX    0.012345  -0.049461   0.003147   0.010634   0.000594
   36  C  2 YY   -0.013559   0.004406   0.006691  -0.027189  -0.004438
   37  C  2 ZZ    0.001213   0.045055  -0.009838   0.016555   0.003844
   38  C  2 XY    0.001478  -0.000642  -0.000567   0.005586  -0.026975
   39  C  2 XZ   -0.001440  -0.000386  -0.001218  -0.003665   0.032881
   40  C  2 YZ   -0.030730   0.006729   0.009564  -0.014182  -0.001680
   41  C  2  S   -4.532502   5.257057   5.816289  15.407080   3.309549
   42  C  2  X    0.108359   0.015787  -0.006804  -0.043305   0.387336
   43  C  2  Y   -0.261589   0.453101   0.958068  -1.159171  -0.253634
   44  C  2  Z    0.392649  -0.708493  -0.716399  -3.737873  -0.861291
   45  C  2 XX    0.236661  -0.332202  -0.025657  -0.368964  -0.086004
   46  C  2 YY    0.299754  -0.525609   1.480027  -0.932138  -0.173011
   47  C  2 ZZ   -0.536415   0.857811  -1.454370   1.301102   0.259015
   48  C  2 XY    0.223828   0.035477   0.047770   0.010322  -0.054783
   49  C  2 XZ    0.204714  -0.002818   0.087822   0.264418  -1.880329
   50  C  2 YZ   -0.931225   0.223341  -0.343307   1.038724   0.155924
   51  H  3  S   -0.176506  -0.028447   0.045031  -0.152559  -0.019815
   52  H  3  S    2.653907  -3.849856  -7.344421  -2.985764  -0.323650
   53  H  3  X    0.005451   0.001550   0.001321  -0.000689   0.001621
[...]
 II,JST,KST,LST =  2  1  1  1 NREC =         1 INTLOC =    1
 II,JST,KST,LST =  3  1  1  1 NREC =         1 INTLOC =    1
 II,JST,KST,LST =  4  1  1  1 NREC =         1 INTLOC =    1
 II,JST,KST,LST =  5  1  1  1 NREC =         1 INTLOC =    1
 II,JST,KST,LST =  6  1  1  1 NREC =         1 INTLOC =    1
 II,JST,KST,LST =  7  1  1  1 NREC =         1 INTLOC =    4
 II,JST,KST,LST =  8  1  1  1 NREC =         1 INTLOC =   49
 II,JST,KST,LST =  9  1  1  1 NREC =         1 INTLOC =  436
 II,JST,KST,LST = 10  1  1  1 NREC =         1 INTLOC =  436
 II,JST,KST,LST = 11  1  1  1 NREC =         1 INTLOC =  698
 II,JST,KST,LST = 12  1  1  1 NREC =         1 INTLOC =  698
 II,JST,KST,LST = 13  1  1  1 NREC =         1 INTLOC =  698
 II,JST,KST,LST = 14  1  1  1 NREC =         1 INTLOC =  698
 II,JST,KST,LST = 15  1  1  1 NREC =         1 INTLOC =  698
 II,JST,KST,LST = 16  1  1  1 NREC =         1 INTLOC = 2922
 II,JST,KST,LST = 17  1  1  1 NREC =         1 INTLOC = 2922
 II,JST,KST,LST = 18  1  1  1 NREC =         1 INTLOC = 4311
 II,JST,KST,LST = 19  1  1  1 NREC =         1 INTLOC =10656
 II,JST,KST,LST = 20  1  1  1 NREC =         2 INTLOC = 3915
 II,JST,KST,LST = 21  1  1  1 NREC =         2 INTLOC = 3915
 II,JST,KST,LST = 22  1  1  1 NREC =         2 INTLOC = 3915
 II,JST,KST,LST = 23  1  1  1 NREC =         2 INTLOC = 8606
 II,JST,KST,LST = 24  1  1  1 NREC =         2 INTLOC =11846
 II,JST,KST,LST = 25  1  1  1 NREC =         3 INTLOC =11330
 II,JST,KST,LST = 26  1  1  1 NREC =         3 INTLOC =11330
 II,JST,KST,LST = 27  1  1  1 NREC =         4 INTLOC = 9482
 II,JST,KST,LST = 28  1  1  1 NREC =         5 INTLOC =14642
 II,JST,KST,LST = 29  1  1  1 NREC =         7 INTLOC = 9419
 II,JST,KST,LST = 30  1  1  1 NREC =         8 INTLOC = 6987
 II,JST,KST,LST = 31  1  1  1 NREC =         9 INTLOC =12152
 II,JST,KST,LST = 32  1  1  1 NREC =        13 INTLOC =12452
 II,JST,KST,LST = 33  1  1  1 NREC =        13 INTLOC =12452
 II,JST,KST,LST = 34  1  1  1 NREC =        16 INTLOC =12613
 II,JST,KST,LST = 35  1  1  1 NREC =        17 INTLOC = 9342
 II,JST,KST,LST = 36  1  1  1 NREC =        17 INTLOC =14893
 II,JST,KST,LST = 37  1  1  1 NREC =        19 INTLOC =  534
 II,JST,KST,LST = 38  1  1  1 NREC =        21 INTLOC =11985
 II,JST,KST,LST = 39  1  1  1 NREC =        26 INTLOC =10962
 II,JST,KST,LST = 40  1  1  1 NREC =        31 INTLOC =11477
 II,JST,KST,LST = 41  1  1  1 NREC =        34 INTLOC = 8658
 II,JST,KST,LST = 42  1  1  1 NREC =        37 INTLOC = 8047
 II,JST,KST,LST = 43  1  1  1 NREC =        42 INTLOC =10126
 II,JST,KST,LST = 44  1  1  1 NREC =        50 INTLOC = 6453
 II,JST,KST,LST = 45  1  1  1 NREC =        50 INTLOC = 6453
 II,JST,KST,LST = 46  1  1  1 NREC =        59 INTLOC =11625
 II,JST,KST,LST = 47  1  1  1 NREC =        61 INTLOC = 6430
 II,JST,KST,LST = 48  1  1  1 NREC =        70 INTLOC =10981
 II,JST,KST,LST = 49  1  1  1 NREC =        89 INTLOC =13659
 II,JST,KST,LST = 50  1  1  1 NREC =        93 INTLOC = 7667
 II,JST,KST,LST = 51  1  1  1 NREC =       100 INTLOC = 1481
 II,JST,KST,LST = 52  1  1  1 NREC =       141 INTLOC =11531
 II,JST,KST,LST = 53  1  1  1 NREC =       141 INTLOC =11531
 II,JST,KST,LST = 54  1  1  1 NREC =       146 INTLOC =13733
 II,JST,KST,LST = 55  1  1  1 NREC =       164 INTLOC = 9856
 II,JST,KST,LST = 56  1  1  1 NREC =       171 INTLOC = 9733
 II,JST,KST,LST = 57  1  1  1 NREC =       183 INTLOC = 6046
 II,JST,KST,LST = 58  1  1  1 NREC =       185 INTLOC =13424
 II,JST,KST,LST = 59  1  1  1 NREC =       193 INTLOC =14216
 II,JST,KST,LST = 60  1  1  1 NREC =       206 INTLOC = 4080
 II,JST,KST,LST = 61  1  1  1 NREC =       214 INTLOC =  335
 II,JST,KST,LST = 62  1  1  1 NREC =       228 INTLOC = 6910
 II,JST,KST,LST = 63  1  1  1 NREC =       233 INTLOC = 3370
 II,JST,KST,LST = 64  1  1  1 NREC =       243 INTLOC = 7592
 II,JST,KST,LST = 65  1  1  1 NREC =       259 INTLOC =14236
 II,JST,KST,LST = 66  1  1  1 NREC =       265 INTLOC = 3082
 SCHWARZ INEQUALITY TEST SKIPPED       34597 INTEGRAL BLOCKS.
 TOTAL NUMBER OF NONZERO TWO-ELECTRON INTEGRALS =            67108629
       4482 INTEGRAL RECORDS WERE STORED ON DISK FILE  8.
  ...... END OF TWO-ELECTRON INTEGRALS .....
 CPU     0: STEP CPU TIME=     0.26 TOTAL CPU TIME=         22.9 (      0.4 MIN)
 TOTAL WALL CLOCK TIME=         23.8 SECONDS, CPU UTILIZATION IS    96.53%

          ---------------------------------------------
          MONOMER ELECTROSTATIC INTERACTION (OWN BASIS)
          ---------------------------------------------

          -------------
          GUESS OPTIONS
          -------------
          GUESS =MOSAVED           NORB  =       0          NORDER=       0
          MIX   =       F          PRTMO =       F          PUNMO =       F
          TOLZ  = 1.0E-08          TOLE  = 1.0E-05
          SYMDEN=       F          PURIFY=       F

 INITIAL GUESS ORBITALS GENERATED BY MOSAVED  ROUTINE.

 STATISTICS FOR GENERATION OF SYMMETRY ORBITAL -Q- MATRIX
 NUMBER OF CARTESIAN ATOMIC ORBITALS=        154
 NUMBER OF SPHERICAL CONTAMINANTS DROPPED=     8
 NUMBER OF LINEARLY DEPENDENT MOS DROPPED=     0
 TOTAL NUMBER OF MOS IN VARIATION SPACE=     146
 ...... END OF INITIAL ORBITAL SELECTION ......
 CPU     0: STEP CPU TIME=     0.01 TOTAL CPU TIME=         22.9 (      0.4 MIN)
 TOTAL WALL CLOCK TIME=         23.8 SECONDS, CPU UTILIZATION IS    96.53%

          ---------------------------
                  UHF SCF CALCULATION
          ---------------------------

 FINAL UHF ENERGY IS     -155.3028428836 AFTER   1 ITERATIONS
 ...... END OF UHF CALCULATION ......
 CPU     0: STEP CPU TIME=     0.08 TOTAL CPU TIME=         23.0 (      0.4 MIN)
 TOTAL WALL CLOCK TIME=         23.9 SECONDS, CPU UTILIZATION IS    96.52%

          -------------
          GUESS OPTIONS
          -------------
          GUESS =MOSAVED           NORB  =       0          NORDER=       0
          MIX   =       F          PRTMO =       F          PUNMO =       F
          TOLZ  = 1.0E-08          TOLE  = 1.0E-05
          SYMDEN=       F          PURIFY=       F

 INITIAL GUESS ORBITALS GENERATED BY MOSAVED  ROUTINE.

 STATISTICS FOR GENERATION OF SYMMETRY ORBITAL -Q- MATRIX
 NUMBER OF CARTESIAN ATOMIC ORBITALS=        154
 NUMBER OF SPHERICAL CONTAMINANTS DROPPED=     8
 NUMBER OF LINEARLY DEPENDENT MOS DROPPED=     0
 TOTAL NUMBER OF MOS IN VARIATION SPACE=     146
 ...... END OF INITIAL ORBITAL SELECTION ......
 CPU     0: STEP CPU TIME=     0.00 TOTAL CPU TIME=         23.0 (      0.4 MIN)
 TOTAL WALL CLOCK TIME=         23.9 SECONDS, CPU UTILIZATION IS    96.52%

          ---------------------------
                  UHF SCF CALCULATION
          ---------------------------

 DIRECT SCF CALCULATION, SCHWRZ=T   FDIFF=T
 SCHWARZ INEQUALITY OVERHEAD:     11935 INTEGRALS, T=        0.00

 FINAL UHF ENERGY IS     -332.0516962367 AFTER   1 ITERATIONS
 ...... END OF UHF CALCULATION ......
 CPU     0: STEP CPU TIME=     0.26 TOTAL CPU TIME=         23.3 (      0.4 MIN)
 TOTAL WALL CLOCK TIME=         24.1 SECONDS, CPU UTILIZATION IS    96.51%

 XEDA STEP ENERGY SUMMATION
 ETOT =       -155.30284288     ENUC =        103.30617530
 EEXCH=        -22.94750087

          --------------------------------------------------
          MONOMER EXCHANGE-REPULSION INTERACTION (OWN BASIS)
          --------------------------------------------------

          -------------
          GUESS OPTIONS
          -------------
          GUESS =MOSAVED           NORB  =       0          NORDER=       0
          MIX   =       F          PRTMO =       F          PUNMO =       F
          TOLZ  = 1.0E-08          TOLE  = 1.0E-05
          SYMDEN=       F          PURIFY=       F

 INITIAL GUESS ORBITALS GENERATED BY MOSAVED  ROUTINE.

 STATISTICS FOR GENERATION OF SYMMETRY ORBITAL -Q- MATRIX
 NUMBER OF CARTESIAN ATOMIC ORBITALS=        154
 NUMBER OF SPHERICAL CONTAMINANTS DROPPED=     8
 NUMBER OF LINEARLY DEPENDENT MOS DROPPED=     0
 TOTAL NUMBER OF MOS IN VARIATION SPACE=     146
 ...... END OF INITIAL ORBITAL SELECTION ......
 CPU     0: STEP CPU TIME=     0.01 TOTAL CPU TIME=         23.3 (      0.4 MIN)
 TOTAL WALL CLOCK TIME=         24.1 SECONDS, CPU UTILIZATION IS    96.51%

          ---------------------------
                  UHF SCF CALCULATION
          ---------------------------

 FINAL UHF ENERGY IS     -154.6269503881 AFTER   1 ITERATIONS
 ...... END OF UHF CALCULATION ......
 CPU     0: STEP CPU TIME=     0.07 TOTAL CPU TIME=         23.4 (      0.4 MIN)
 TOTAL WALL CLOCK TIME=         24.2 SECONDS, CPU UTILIZATION IS    96.50%

 XEDA STEP ENERGY SUMMATION
 ETOT =       -154.62695039     ENUC =        103.30617530

          ---------------------------------------------
          MONOMER ELECTROSTATIC INTERACTION (ALL BASIS)
          ---------------------------------------------

          -------------
          GUESS OPTIONS
          -------------
          GUESS =MOSAVED           NORB  =       0          NORDER=       0
          MIX   =       F          PRTMO =       F          PUNMO =       F
          TOLZ  = 1.0E-08          TOLE  = 1.0E-05
          SYMDEN=       F          PURIFY=       F

 INITIAL GUESS ORBITALS GENERATED BY MOSAVED  ROUTINE.

 STATISTICS FOR GENERATION OF SYMMETRY ORBITAL -Q- MATRIX
 NUMBER OF CARTESIAN ATOMIC ORBITALS=        154
 NUMBER OF SPHERICAL CONTAMINANTS DROPPED=     8
 NUMBER OF LINEARLY DEPENDENT MOS DROPPED=     0
 TOTAL NUMBER OF MOS IN VARIATION SPACE=     146
 ...... END OF INITIAL ORBITAL SELECTION ......
 CPU     0: STEP CPU TIME=     0.01 TOTAL CPU TIME=         23.4 (      0.4 MIN)
 TOTAL WALL CLOCK TIME=         24.2 SECONDS, CPU UTILIZATION IS    96.50%

          ---------------------------
                  UHF SCF CALCULATION
          ---------------------------

 FINAL UHF ENERGY IS     -155.3095680845 AFTER   1 ITERATIONS
 ...... END OF UHF CALCULATION ......
 CPU     0: STEP CPU TIME=     0.08 TOTAL CPU TIME=         23.5 (      0.4 MIN)
 TOTAL WALL CLOCK TIME=         24.3 SECONDS, CPU UTILIZATION IS    96.49%

          -------------
          GUESS OPTIONS
          -------------
          GUESS =MOSAVED           NORB  =       0          NORDER=       0
          MIX   =       F          PRTMO =       F          PUNMO =       F
          TOLZ  = 1.0E-08          TOLE  = 1.0E-05
          SYMDEN=       F          PURIFY=       F

 INITIAL GUESS ORBITALS GENERATED BY MOSAVED  ROUTINE.

 STATISTICS FOR GENERATION OF SYMMETRY ORBITAL -Q- MATRIX
 NUMBER OF CARTESIAN ATOMIC ORBITALS=        154
 NUMBER OF SPHERICAL CONTAMINANTS DROPPED=     8
 NUMBER OF LINEARLY DEPENDENT MOS DROPPED=     0
 TOTAL NUMBER OF MOS IN VARIATION SPACE=     146
 ...... END OF INITIAL ORBITAL SELECTION ......
 CPU     0: STEP CPU TIME=     0.01 TOTAL CPU TIME=         23.5 (      0.4 MIN)
 TOTAL WALL CLOCK TIME=         24.3 SECONDS, CPU UTILIZATION IS    96.49%

          ---------------------------
                  UHF SCF CALCULATION
          ---------------------------

 DIRECT SCF CALCULATION, SCHWRZ=T   FDIFF=T
 SCHWARZ INEQUALITY OVERHEAD:     11935 INTEGRALS, T=        0.00

 FINAL UHF ENERGY IS     -332.0743429732 AFTER   1 ITERATIONS
 ...... END OF UHF CALCULATION ......
 CPU     0: STEP CPU TIME=     0.26 TOTAL CPU TIME=         23.7 (      0.4 MIN)
 TOTAL WALL CLOCK TIME=         24.6 SECONDS, CPU UTILIZATION IS    96.49%

 XEDA STEP ENERGY SUMMATION
 ETOT =       -155.30956808     ENUC =        103.30617530
 EEXCH=        -22.94819233

          --------------------------------------------------
          MONOMER EXCHANGE-REPULSION INTERACTION (ALL BASIS)
          --------------------------------------------------

          -------------
          GUESS OPTIONS
          -------------
          GUESS =MOSAVED           NORB  =       0          NORDER=       0
          MIX   =       F          PRTMO =       F          PUNMO =       F
          TOLZ  = 1.0E-08          TOLE  = 1.0E-05
          SYMDEN=       F          PURIFY=       F

 INITIAL GUESS ORBITALS GENERATED BY MOSAVED  ROUTINE.

 STATISTICS FOR GENERATION OF SYMMETRY ORBITAL -Q- MATRIX
 NUMBER OF CARTESIAN ATOMIC ORBITALS=        154
 NUMBER OF SPHERICAL CONTAMINANTS DROPPED=     8
 NUMBER OF LINEARLY DEPENDENT MOS DROPPED=     0
 TOTAL NUMBER OF MOS IN VARIATION SPACE=     146
 ...... END OF INITIAL ORBITAL SELECTION ......
 CPU     0: STEP CPU TIME=     0.01 TOTAL CPU TIME=         23.7 (      0.4 MIN)
 TOTAL WALL CLOCK TIME=         24.6 SECONDS, CPU UTILIZATION IS    96.49%

          ---------------------------
                  UHF SCF CALCULATION
          ---------------------------

 FINAL UHF ENERGY IS     -154.6317881228 AFTER   1 ITERATIONS
 ...... END OF UHF CALCULATION ......
 CPU     0: STEP CPU TIME=     0.08 TOTAL CPU TIME=         23.8 (      0.4 MIN)
 TOTAL WALL CLOCK TIME=         24.7 SECONDS, CPU UTILIZATION IS    96.48%

 XEDA STEP ENERGY SUMMATION
 ETOT =       -154.63178812     ENUC =        103.30617530

          --------------------------------
          RESULTS OF INTERACTION ANALYSIS
          --------------------------------

     ENERGY TERMS
     T   ELECTRON KINETIC AND COULOMB POTENTIAL
     X   E-E EXCHANGE COMBINE WITH DIAGNANAL VALUE
     N   NUCLEUS-NUCLEUS REPULSION ENERGY

 --------------
 MONOMER ENERGY
 --------------

 MONOMER    1

                   OWN BASIS           ALL BASIS

 T              -93.94365187        -93.94397041
 X              -11.31334215        -11.31358794
 N               27.87941462         27.87941462
 EC              -0.47434391         -0.47483318
 E              -77.85192331        -77.85297692

 MONOMER    2

                   OWN BASIS           ALL BASIS

 T              -93.94362742        -93.94394893
 X              -11.31334867        -11.31358731
 N               27.87939510         27.87939510
 EC              -0.47433660         -0.47484892
 E              -77.85191759        -77.85299007

 ------------------------------------------------------------
 SUPER MOLECULE ENERGY  USING NON-ANTISYMMETRIC WAVEFUNCTION
 (ELECTROSTATIC ENERGY: T N CHANGE)
 ------------------------------------------------------------

              FROM OWN BASIS      FROM ALL BASIS
 T             -235.66151731       -235.66755105
 X              -22.62669082        -22.62717526
 N              103.30617530        103.30617530
 E             -154.98203284       -154.98855101

 ----------------------------------------------------------------------
 SUPER MOLECULE ENERGY  USING ANTISYMMETRIC NONORTHONORMAL WAVEFUNCTION
 (EXCHANGE ENERGY: ONLY X CHANGES)
 ----------------------------------------------------------------------

              FROM OWN BASIS      FROM ALL BASIS
 T             -235.66151731       -235.66755105
 X              -22.94750087        -22.94819233
 N              103.30617530        103.30617530
 E             -155.30284288       -155.30956808

 -----------------------------------------------------------------------
 SUPER MOLECULE ENERGY  USING ANTISYMMETRIC AND ORTHONORMAL WAVEFUNCTION
 (REPULSION ENERGY: T X CHANGE)
 -----------------------------------------------------------------------

              FROM OWN BASIS      FROM ALL BASIS
 T+X           -257.93312569       -257.93796342
 N              103.30617530        103.30617530
 E             -154.62695039       -154.63178812

 ---------------------------------------------
 SUPER MOLECULE ENERGY  USING SCF WAVEFUNCTION
 (POLARIZATION ENERGY: T X CHANGE)
 ---------------------------------------------
 T+X           -258.21575583
 N              103.30617530
 EC              -0.98531526
 E             -155.89489579


                   *******************************
                   SUMMARY OF INTERACTION ENERGIES
                     XEDA IN XIAMEN UNIVERSITY    
                    - ZHEN TANG AND PEIFENG SU -  
                   *******************************


 -------------
 OWN BASIS SET                                       HARTREE          KCAL/MOL
 -------------
 ELECTROSTATIC ENERGY                  ES=         -0.226872           -142.36
 EXCHANGE ENERGY                       EX=         -0.320810           -201.31
 REPULSION ENERGY                     REP=          0.675892            424.13
 POLARIZATION ENERGY                  POL=         -0.282630           -177.35
 ELECTRON CORRELATION                CORR=         -0.036635            -22.99
 TOTAL INTERACTION ENERGY               E=         -0.191055           -119.89
  

 -------------
 ALL BASIS SET                                       HARTREE          KCAL/MOL
 -------------
 ELECTROSTATIC ENERGY                  ES=         -0.232266           -145.75
 EXCHANGE ENERGY                       EX=         -0.321017           -201.44
 REPULSION ENERGY                     REP=          0.677780            425.31
 POLARIZATION ENERGY                  POL=         -0.277792           -174.32
 ELECTRON CORRELATION                CORR=         -0.035633            -22.36
 TOTAL INTERACTION ENERGY               E=         -0.188929           -118.55
  

                     ***************************
                     END OF INTERACTION ANALYSIS
                     ***************************

              1301896  WORDS OF DYNAMIC MEMORY USED
 EXECUTION OF GAMESS TERMINATED NORMALLY 14:31:21 25-DEC-2023    
 DDI: 263640 bytes (0.3 MB / 0 MWords) used by master data server.

 ----------------------------------------
 CPU timing information for all processes
 ========================================
 0: 23.161 + 0.659 = 23.821
 1: 22.956 + 0.524 = 23.481
 2: 23.05 + 0.574 = 23.580
 3: 22.916 + 0.501 = 23.417
 4: 23.42 + 0.547 = 23.590
 5: 22.933 + 0.557 = 23.491
 6: 22.966 + 0.581 = 23.548
 7: 22.913 + 0.527 = 23.440
 8: 22.984 + 0.578 = 23.562
 9: 23.02 + 0.462 = 23.464
 10: 22.938 + 0.562 = 23.500
 11: 22.902 + 0.472 = 23.375
 12: 22.960 + 0.549 = 23.509
 13: 22.958 + 0.479 = 23.437
 14: 22.876 + 0.508 = 23.384
 15: 22.749 + 0.488 = 23.237
 ----------------------------------------
 ddikick.x: exited gracefully.
----- accounting info -----
Files used on the master node w013 were:
-rw-r--r-- 1 xacs0647 10000  2703863 Dec 25 14:31 /job_dir/13_1685736/13.dat
-rw-r--r-- 1 xacs0647 10000      243 Dec 25 14:31 /job_dir/13_1685736/13.err
-rw-r--r-- 1 xacs0647 10000      837 Dec 25 14:30 /job_dir/13_1685736/13.F05
-rw-r--r-- 1 xacs0647 10000 50944528 Dec 25 14:31 /job_dir/13_1685736/13.F08
-rw-r--r-- 1 xacs0647 10000 45904080 Dec 25 14:31 /job_dir/13_1685736/13.F08.001
-rw-r--r-- 1 xacs0647 10000 49864432 Dec 25 14:31 /job_dir/13_1685736/13.F08.002
-rw-r--r-- 1 xacs0647 10000 49504400 Dec 25 14:31 /job_dir/13_1685736/13.F08.003
-rw-r--r-- 1 xacs0647 10000 51124544 Dec 25 14:31 /job_dir/13_1685736/13.F08.004
-rw-r--r-- 1 xacs0647 10000 53104720 Dec 25 14:31 /job_dir/13_1685736/13.F08.005
-rw-r--r-- 1 xacs0647 10000 49684416 Dec 25 14:31 /job_dir/13_1685736/13.F08.006
-rw-r--r-- 1 xacs0647 10000 50944528 Dec 25 14:31 /job_dir/13_1685736/13.F08.007
-rw-r--r-- 1 xacs0647 10000 46984176 Dec 25 14:31 /job_dir/13_1685736/13.F08.008
-rw-r--r-- 1 xacs0647 10000 54364832 Dec 25 14:31 /job_dir/13_1685736/13.F08.009
-rw-r--r-- 1 xacs0647 10000 48964352 Dec 25 14:31 /job_dir/13_1685736/13.F08.010
-rw-r--r-- 1 xacs0647 10000 49504400 Dec 25 14:31 /job_dir/13_1685736/13.F08.011
-rw-r--r-- 1 xacs0647 10000 51844608 Dec 25 14:31 /job_dir/13_1685736/13.F08.012
-rw-r--r-- 1 xacs0647 10000 53104720 Dec 25 14:31 /job_dir/13_1685736/13.F08.013
-rw-r--r-- 1 xacs0647 10000 48964352 Dec 25 14:31 /job_dir/13_1685736/13.F08.014
-rw-r--r-- 1 xacs0647 10000 52024624 Dec 25 14:31 /job_dir/13_1685736/13.F08.015
-rw-r--r-- 1 xacs0647 10000  5758720 Dec 25 14:31 /job_dir/13_1685736/13.F10
-rw-r--r-- 1 xacs0647 10000      837 Dec 25 14:30 /job_dir/13_1685736/13.inp
-rw-r--r-- 1 xacs0647 10000  2403319 Dec 25 14:31 /job_dir/13_1685736/13.out
Mon Dec 25 14:31:24 CST 2023
0.087u 0.071s 0:27.87 0.5%	0+0k 0+40io 0pf+0w
