----- GAMESS execution script 'rungms' -----
This job is running on host w014
under operating system Linux at Mon Dec 25 14:30:56 CST 2023
Available scratch disk space (Kbyte units) at beginning of the job is
Filesystem              1K-blocks    Used Available Use% Mounted on
/dev/mapper/system-root 932514944 2732940 929782004   1% /
GAMESS temporary binary files will be written to /job_dir/14_1685737
GAMESS supplementary output files will be written to /job_dir/14_1685737
Copying input file ./14.inp to your run's scratch directory...
 
Assuming a single but multicore node.
 

 Distributed Data Interface kickoff program.
 Initiating 16 compute processes on 1 nodes to run the following command:
 /share/apps/xeda-apps/xeda-td/gamess.00.x 14 

          *******************************************************
          *                                                     *
          *          GAMESS VERSION = 30 SEP 2020 (R2)          *
          *                                                     *
          *              doi.org/10.1063/5.0005188              *
          *                                                     *
          **************** 64 BIT LINUX VERSION *****************

  GAMESS HAS BEEN MADE POSSIBLE WITH IMPORTANT CONTRIBUTIONS FROM
  THE FOLLOWING INDIVIDUALS (IN ALPHABETICAL ORDER):

     IVANA ADAMOVIC, CHRISTINE AIKENS, TOMOKO AKAMA,
     YURI ALEXEEV, YURIKO AOKI, POOJA ARORA, TOSHIO ASADA,
     ANDREY ASADCHEV, KIM K. BALDRIDGE, PRADIPTA BANDYOPADHYAY,
     MARIA BARYSZ, ROB BELL, JONATHAN BENTZ, COLLEEN BERTONI,
     JERRY A. BOATZ, BRETT BODE, KURT BRORSEN, KURT R. BRORSEN,
     LAIMUTIS BYTAUTAS, CALEB CARLIN, LAURA CARRINGTON,
     GALINA CHABAN, BENOIT CHAMPAGNE, WEI CHEN, MAHITO CHIBA,
     DAN CHIPMAN, CHEOL HO CHOI, TANNER CULPITT,
     DIPAYAN DATTA, PAUL DAY, ALBERT DEFUSCO,
     NUWAN DESILVA, J. EMILIANO DEUSTUA,
     TIM DUDLEY, MICHEL DUPUIS, STEVEN T. ELBERT,
     DMITRI FEDOROV, ALEX FINDLATER, GRAHAM FLETCHER,
     MARK FREITAG, CHRISTIAN FRIEDL, DAVID GARMER,
     IGOR S. GERASIMOV, KURT GLAESEMANN, MARK S. GORDON,
     JEFFREY GOUR, FENG LONG GU, EMILIE B. GUIDEZ,
     ANASTASIA GUNINA, SHARON HAMMES-SCHIFFER, MASATAKE HARUTA,
     KIMIHIKO HIRAO, YASUHIRO IKABATA, TZVETELIN IORDANOV,
     STEPHAN IRLE, KAZUYA ISHIMURA, JOE IVANIC, FRANK JENSEN,
     JAN H. JENSEN, VISVALDAS KAIRYS, MUNEAKI KAMIYA,
     MICHIO KATOUDA, NAOAKI KAWAKAMI, DAN KEMP, BERNARD KIRTMAN,
     KAZUO KITAURA, MARIUSZ KLOBUKOWSKI, MASATO KOBAYASHI,
     PRAKASHAN KORAMBATH, JACEK KORCHOWIEC, SHIRO KOSEKI,
     KAROL KOWALSKI, JIMMY KROMANN, STANISLAW KUCHARSKI,
     HENRY KURTZ, SAROM SOK LEANG, HUI LI, SHUHUA LI, WEI LI,
     JESSE LUTZ, ALEKSANDR O. LYKHIN, MARCIN MAKOWSKI,
     JOANI MATO, NIKITA MATSUNAGA, BENEDETTA MENNUCCI,
     GRANT MERRILL, NORIYUKI MINEZAWA, VLADIMIR MIRONOV,
     EISAKU MIYOSHI, JOHN A. MONTGOMERY JR., HIROTOSHI MORI,
     JONATHAN MULLIN, MONIKA MUSIAL, SHIGERU NAGASE,
     TAKESHI NAGATA, HIROMI NAKAI, TAKAHITO NAKAJIMA,
     YUYA NAKAJIMA, HARUYUKI NAKANO, HIROYA NAKATA, SEAN NEDD,
     HEATHER NETZLOFF, KIET A. NGUYEN, YOSHIO NISHIMOTO,
     BOSILJKA NJEGIC, RYAN OLSON, MIKE PAK, ROBERTO PEVERATI,
     BUU PHAM, PIOTR PIECUCH, ANNA POMOGAEVA, DAVID POOLE,
     SPENCER PRUITT, OLIVIER QUINET, LUKE ROSKOP,
     KLAUS RUEDENBERG, ANDREW SAND, TOSAPORN SATTASATHUCHANA,
     NOZOMI SAWADA, MICHAEL W. SCHMIDT, PATRICK E. SCHNEIDER,
     JUNJI SEINO, PRACHI SHARMA, JUN SHEN, JIM SHOEMAKER,
     YINAN SHU, DEJUN SI, JONATHAN SKONE, LYUDMILA SLIPCHENKO,
     TONY SMITH, JIE SONG, MARK SPACKMAN, CASPER STEINMANN,
     WALT STEVENS, PEIFENG SU, SHUJUN SU, CHET SWALINA,
     TETSUYA TAKETSUGU, ZHEN TAO, NANDUN THELLAMUREGE
     SEIKEN TOKURA, JACOPO TOMASI, TSUGUKI TOUMA, TAKAO TSUNEDA,
     HIROAKI UMEDA, JORGE LUIS GALVEZ VALLEJO, YALI WANG,
     SIMON WEBB, AARON WEST, THERESA L. WINDUS, MARTA WLOCH,
     PENG XU, KIYOSHI YAGI, SUSUMU YANAGISAWA, YANG YANG,
     SOOHAENG YOO, TAKESHI YOSHIKAWA, FEDERICO ZAHARIEV,
     TOBY ZENG

  WHO ARE SUPPORTED BY THEIR INSTITUTION/UNIVERSITY/COMPANY/GROUP
  (IN ALPHABETICAL ORDER):

     EP ANALYTICS, FACULTES UNIVERSITAIRES NOTRE-DAME DE LA PAIX,
     INSTITUTE FOR MOLECULAR SCIENCE, IOWA STATE UNIVERSITY,
     JACKSON STATE UNIVERSITY, JOHANNES KEPLER UNIVERSITY LINZ,
     KYUSHU UNIVERSITY, MICHIGAN STATE UNIVERSITY,
     MIE UNIVERSITY, MOSCOW STATE UNIVERSITY,
     N. COPERNICUS UNIVERSITY, NAGOYA UNIVERSITY,
     NANJING UNIVERSITY, NAT. INST. OF ADVANCED INDUSTRIAL
     SCIENCE AND TECHNOLOGY, NATIONAL INST. OF STANDARDS AND
     TECHNOLOGY, NESMEYANOV INSTITUTE OF ORGANOELEMENT COMPOUNDS
     OF RUSSIAN ACADEMY OF SCIENCES, OSAKA PREFECTURE UNIVERSITY,
     PENNSYLVANIA STATE UNIVERSITY, TOKYO INSTITUTE OF TECHNOLOGY,
     UNIVERSITY OF AARHUS, UNIVERSITY OF ALBERTA,
     UNIVERSITY OF CALIFORNIA AT SANTA BARBARA,
     UNIVERSITY OF COPENHAGEN, UNIVERSITY OF IOWA,
     UNIVERSITY OF MEMPHIS, UNIVERSITY OF MINNESOTA,
     UNIVERSITY OF NEBRASKA, UNIVERSITY OF NEW ENGLAND,
     UNIVERSITY OF NOTRE DAME, UNIVERSITY OF PISA,
     UNIVERSITY OF SILESIA, UNIVERSITY OF TOKYO,
     UNIVERSITY OF ZURICH, WASEDA UNIVERSITY, YALE UNIVERSITY

  GAMESS SOFTWARE MANAGEMENT TEAM FOR THIS RELEASE:
     MARK S. GORDON (TEAM LEAD),
     BRETT BODE (SENIOR ADVISOR),
     GIUSEPPE BARCA,
     COLLEEN BERTONI,
     KRISTOPHER KEIPERT (ADVISOR),
     SAROM S. LEANG (DEVELOPMENT LEAD),
     BUU PHAM,
     JORGE LUIS GALVEZ VALLEJO (WEBSITE ADMINISTRATOR),
     PENG XU


 PARALLEL VERSION RUNNING ON       16 PROCESSORS IN        1 NODES.

 EXECUTION OF GAMESS BEGUN 14:30:56 25-DEC-2023    

            ECHO OF THE FIRST FEW INPUT CARDS -
 INPUT CARD> $CONTRL SCFTYP=UHF RUNTYP=EDA dfttyp=B3LYP ispher=1 icharg=0 mult=1 $END       
 INPUT CARD> $SYSTEM  mwords=150 memddi=150 $END                                            
 INPUT CARD> $BASIS gbasis=accd $END                                                        
 INPUT CARD> $LMOEDA MATOM(1)=5 5 MCHARG(1)=0 0 MMULT(1)=2 -2 edatyp=gks $end               
 INPUT CARD> $scf DIIS=.TRUE. ETHRSH=2.0 SWDIIS=0.005 $end                                  
 INPUT CARD> $data                                                                          
 INPUT CARD> EDA calculation with XEDA 1.0                                                  
 INPUT CARD> c1                                                                             
 INPUT CARD>C   6   -0.2370871273    0.8741300391   -1.4010217784                           
 INPUT CARD>C   6   -0.2370871273    0.8741300391   -0.0452535784                           
 INPUT CARD>H   1   -0.2754281575    1.8292657652    0.4936307332                           
 INPUT CARD>H   1   -0.2406891273   -0.0573215819   -1.9745949793                           
 INPUT CARD>H   1   -0.2354058493    1.8018493979   -1.9783243883                           
 INPUT CARD>C   6   -0.2370871273   -0.3606489876    0.7975736008                           
 INPUT CARD>C   6    0.6802101079   -1.3540033747    0.6979503941                           
 INPUT CARD>H   1    1.5004702131   -1.3069162664   -0.0242398660                           
 INPUT CARD>H   1    0.6415139510   -2.2415095256    1.3341716965                           
 INPUT CARD>H   1   -1.0207388296   -0.4255291048    1.5629617078                           
 INPUT CARD> $end                                                                           
  150000000 WORDS OF MEMORY AVAILABLE

     BASIS OPTIONS
     -------------
     GBASIS=ACCD         IGAUSS=       0      POLAR=NONE    
     NDFUNC=       0     NFFUNC=       0     DIFFSP=       F
     NPFUNC=       0      DIFFS=       F     BASNAM=        


     RUN TITLE
     ---------
  EDA calculation with XEDA 1.0                                                  

 THE POINT GROUP OF THE MOLECULE IS C1      
 THE ORDER OF THE PRINCIPAL AXIS IS     0

 ATOM      ATOMIC                      COORDINATES (BOHR)
           CHARGE         X                   Y                   Z
 C           6.0    -0.4480297058        1.6518662515       -2.6475472640
 C           6.0    -0.4480297058        1.6518662515       -0.0855168631
 H           1.0    -0.5204837470        3.4568110549        0.9328268249
 H           1.0    -0.4548364988       -0.1083220830       -3.7314434476
 H           1.0    -0.4448525511        3.4050016332       -3.7384910087
 C           6.0    -0.4480297058       -0.6815277643        1.5071955606
 C           6.0     1.2854107180       -2.5586953646        1.3189349979
 H           1.0     2.8354775555       -2.4697136324       -0.0458067047
 H           1.0     1.2122855847       -4.2358388023        2.5212189270
 H           1.0    -1.9289166930       -0.8041334079        2.9535693570

          INTERNUCLEAR DISTANCES (ANGS.)
          ------------------------------

                1 C          2 C          3 H          4 H          5 H     

   1 C       0.0000000    1.3557682 *  2.1221363 *  1.0938927 *  1.0926776 *
   2 C       1.3557682 *  0.0000000    1.0973380 *  2.1424223 *  2.1441616 *
   3 H       2.1221363 *  1.0973380 *  0.0000000    3.1068564    2.4724311 *
   4 H       1.0938927 *  2.1424223 *  3.1068564    0.0000000    1.8591822 *
   5 H       1.0926776 *  2.1441616 *  2.4724311 *  1.8591822 *  0.0000000  
   6 C       2.5216068 *  1.4950040 *  2.2112390 *  2.7887164 *  3.5188083  
   7 C       3.1955746    2.5215798 *  3.3298939    3.1099739    4.2379483  
   8 H       3.1099191    2.7886395 *  3.6411046    2.8977591 *  4.0615435  
   9 H       4.2379751    3.5188015    4.2565835    4.0616371    5.3000349  
  10 H       3.3299282    2.2112395 *  2.6044302 *  3.6412033    4.2566031  

                6 C          7 C          8 H          9 H         10 H     

   1 C       2.5216068 *  3.1955746    3.1099191    4.2379751    3.3299282  
   2 C       1.4950040 *  2.5215798 *  2.7886395 *  3.5188015    2.2112395 *
   3 H       2.2112390 *  3.3298939    3.6411046    4.2565835    2.6044302 *
   4 H       2.7887164 *  3.1099739    2.8977591 *  4.0616371    3.6412033  
   5 H       3.5188083    4.2379483    4.0615435    5.3000349    4.2566031  
   6 C       0.0000000    1.3557699 *  2.1424063 *  2.1441814 *  1.0973324 *
   7 C       1.3557699 *  0.0000000    1.0938933 *  1.0926766 *  2.1221537 *
   8 H       2.1424063 *  1.0938933 *  0.0000000    1.8591806 *  3.1068549  
   9 H       2.1441814 *  1.0926766 *  1.8591806 *  0.0000000    2.4724915 *
  10 H       1.0973324 *  2.1221537 *  3.1068549    2.4724915 *  0.0000000  

  * ... LESS THAN  3.000


     ATOMIC BASIS SET
     ----------------
 THE CONTRACTED PRIMITIVE FUNCTIONS HAVE BEEN UNNORMALIZED
 THE CONTRACTED BASIS FUNCTIONS ARE NOW NORMALIZED TO UNITY

  SHELL TYPE  PRIMITIVE        EXPONENT          CONTRACTION COEFFICIENT(S)

 C         

      1   S       1          6665.0000000    0.000691583963
      1   S       2          1000.0000000    0.005325796153
      1   S       3           228.0000000    0.027060721042
      1   S       4            64.7100000    0.101656846141
      1   S       5            21.0600000    0.274574823617
      1   S       6             7.4950000    0.448294318924
      1   S       7             2.7970000    0.284902610715
      1   S       8             0.5215000    0.015194859206

      2   S       9          6665.0000000   -0.000293269653
      2   S      10          1000.0000000   -0.002318035474
      2   S      11           228.0000000   -0.011499786039
      2   S      12            64.7100000   -0.046826727010
      2   S      13            21.0600000   -0.128466168750
      2   S      14             7.4950000   -0.301266272463
      2   S      15             2.7970000   -0.255630702330
      2   S      16             0.5215000    1.093793361012

      3   S      17             0.1596000    1.000000000000

      4   P      18             9.4390000    0.056979251590
      4   P      19             2.0020000    0.313207211501
      4   P      20             0.5456000    0.760376741738

      5   P      21             0.1517000    1.000000000000

      6   D      22             0.5500000    1.000000000000

      7   S      23             0.0469000    1.000000000000

      8   P      24             0.0404100    1.000000000000

      9   D      25             0.1510000    1.000000000000

 C         

     10   S      26          6665.0000000    0.000691583963
     10   S      27          1000.0000000    0.005325796153
     10   S      28           228.0000000    0.027060721042
     10   S      29            64.7100000    0.101656846141
     10   S      30            21.0600000    0.274574823617
     10   S      31             7.4950000    0.448294318924
     10   S      32             2.7970000    0.284902610715
     10   S      33             0.5215000    0.015194859206

     11   S      34          6665.0000000   -0.000293269653
     11   S      35          1000.0000000   -0.002318035474
     11   S      36           228.0000000   -0.011499786039
     11   S      37            64.7100000   -0.046826727010
     11   S      38            21.0600000   -0.128466168750
     11   S      39             7.4950000   -0.301266272463
     11   S      40             2.7970000   -0.255630702330
     11   S      41             0.5215000    1.093793361012

     12   S      42             0.1596000    1.000000000000

     13   P      43             9.4390000    0.056979251590
     13   P      44             2.0020000    0.313207211501
     13   P      45             0.5456000    0.760376741738

     14   P      46             0.1517000    1.000000000000

     15   D      47             0.5500000    1.000000000000

     16   S      48             0.0469000    1.000000000000

     17   P      49             0.0404100    1.000000000000

     18   D      50             0.1510000    1.000000000000

 H         

     19   S      51            13.0100000    0.033498726390
     19   S      52             1.9620000    0.234800801174
     19   S      53             0.4446000    0.813682957883

     20   S      54             0.1220000    1.000000000000

     21   P      55             0.7270000    1.000000000000

     22   S      56             0.0297400    1.000000000000

     23   P      57             0.1410000    1.000000000000

 H         

     24   S      58            13.0100000    0.033498726390
     24   S      59             1.9620000    0.234800801174
     24   S      60             0.4446000    0.813682957883

     25   S      61             0.1220000    1.000000000000

     26   P      62             0.7270000    1.000000000000

     27   S      63             0.0297400    1.000000000000

     28   P      64             0.1410000    1.000000000000

 H         

     29   S      65            13.0100000    0.033498726390
     29   S      66             1.9620000    0.234800801174
     29   S      67             0.4446000    0.813682957883

     30   S      68             0.1220000    1.000000000000

     31   P      69             0.7270000    1.000000000000

     32   S      70             0.0297400    1.000000000000

     33   P      71             0.1410000    1.000000000000

 C         

     34   S      72          6665.0000000    0.000691583963
     34   S      73          1000.0000000    0.005325796153
     34   S      74           228.0000000    0.027060721042
     34   S      75            64.7100000    0.101656846141
     34   S      76            21.0600000    0.274574823617
     34   S      77             7.4950000    0.448294318924
     34   S      78             2.7970000    0.284902610715
     34   S      79             0.5215000    0.015194859206

     35   S      80          6665.0000000   -0.000293269653
     35   S      81          1000.0000000   -0.002318035474
     35   S      82           228.0000000   -0.011499786039
     35   S      83            64.7100000   -0.046826727010
     35   S      84            21.0600000   -0.128466168750
     35   S      85             7.4950000   -0.301266272463
     35   S      86             2.7970000   -0.255630702330
     35   S      87             0.5215000    1.093793361012

     36   S      88             0.1596000    1.000000000000

     37   P      89             9.4390000    0.056979251590
     37   P      90             2.0020000    0.313207211501
     37   P      91             0.5456000    0.760376741738

     38   P      92             0.1517000    1.000000000000

     39   D      93             0.5500000    1.000000000000

     40   S      94             0.0469000    1.000000000000

     41   P      95             0.0404100    1.000000000000

     42   D      96             0.1510000    1.000000000000

 C         

     43   S      97          6665.0000000    0.000691583963
     43   S      98          1000.0000000    0.005325796153
     43   S      99           228.0000000    0.027060721042
     43   S     100            64.7100000    0.101656846141
     43   S     101            21.0600000    0.274574823617
     43   S     102             7.4950000    0.448294318924
     43   S     103             2.7970000    0.284902610715
     43   S     104             0.5215000    0.015194859206

     44   S     105          6665.0000000   -0.000293269653
     44   S     106          1000.0000000   -0.002318035474
     44   S     107           228.0000000   -0.011499786039
     44   S     108            64.7100000   -0.046826727010
     44   S     109            21.0600000   -0.128466168750
     44   S     110             7.4950000   -0.301266272463
     44   S     111             2.7970000   -0.255630702330
     44   S     112             0.5215000    1.093793361012

     45   S     113             0.1596000    1.000000000000

     46   P     114             9.4390000    0.056979251590
     46   P     115             2.0020000    0.313207211501
     46   P     116             0.5456000    0.760376741738

     47   P     117             0.1517000    1.000000000000

     48   D     118             0.5500000    1.000000000000

     49   S     119             0.0469000    1.000000000000

     50   P     120             0.0404100    1.000000000000

     51   D     121             0.1510000    1.000000000000

 H         

     52   S     122            13.0100000    0.033498726390
     52   S     123             1.9620000    0.234800801174
     52   S     124             0.4446000    0.813682957883

     53   S     125             0.1220000    1.000000000000

     54   P     126             0.7270000    1.000000000000

     55   S     127             0.0297400    1.000000000000

     56   P     128             0.1410000    1.000000000000

 H         

     57   S     129            13.0100000    0.033498726390
     57   S     130             1.9620000    0.234800801174
     57   S     131             0.4446000    0.813682957883

     58   S     132             0.1220000    1.000000000000

     59   P     133             0.7270000    1.000000000000

     60   S     134             0.0297400    1.000000000000

     61   P     135             0.1410000    1.000000000000

 H         

     62   S     136            13.0100000    0.033498726390
     62   S     137             1.9620000    0.234800801174
     62   S     138             0.4446000    0.813682957883

     63   S     139             0.1220000    1.000000000000

     64   P     140             0.7270000    1.000000000000

     65   S     141             0.0297400    1.000000000000

     66   P     142             0.1410000    1.000000000000

 TOTAL NUMBER OF BASIS SET SHELLS             =   66
 NUMBER OF CARTESIAN GAUSSIAN BASIS FUNCTIONS =  154
 NOTE: THIS RUN WILL RESTRICT THE MO VARIATION SPACE TO SPHERICAL HARMONICS.
 THE NUMBER OF ORBITALS KEPT IN THE VARIATIONAL SPACE WILL BE PRINTED LATER.
 NUMBER OF ELECTRONS                          =   30
 CHARGE OF MOLECULE                           =    0
 SPIN MULTIPLICITY                            =    1
 NUMBER OF OCCUPIED ORBITALS (ALPHA)          =   15
 NUMBER OF OCCUPIED ORBITALS (BETA )          =   15
 TOTAL NUMBER OF ATOMS                        =   10
 THE NUCLEAR REPULSION ENERGY IS      103.2622763971

 SELECTED MURRAY-HANDY-LAMING RADIAL GRID

 LEGACY BECKE'S FUZZY CELL METHOD

 SELECTED ORIGINAL BECKE'S PARTITION FUNCTION

     LEBEDEV GRID-BASED DFT OPTIONS
     ------------------------------
     DFTTYP=B3LYP   
     NRAD  =      96     NLEB  =     302
     NRAD0 =      24     NLEB0 =     110
     SWOFF =    5.00E-03 (PURE SCF -> DFT)
     SWITCH=    3.00E-04 (COARSE -> TIGHT GRID)
     THRESH=    0.00E+00 GTHRE=    1.00E+00

 GRIMME'S EMPIRICAL DISPERSION CORRECTION= F

     $CONTRL OPTIONS
     ---------------
 SCFTYP=UHF          RUNTYP=LMOEDA       EXETYP=RUN     
 MPLEVL=       0     CITYP =NONE         CCTYP =NONE         VBTYP =NONE    
 DFTTYP=B3LYP        TDDFT =NONE    
 MULT  =       1     ICHARG=       0     NZVAR =       0     COORD =UNIQUE  
 PP    =NONE         RELWFN=NONE         LOCAL =NONE         NUMGRD=       F
 ISPHER=       1     NOSYM =       0     MAXIT =      30     UNITS =ANGS    
 PLTORB=       F     MOLPLT=       F     AIMPAC=       F     FRIEND=        
 NPRINT=       7     IREST =       0     GEOM  =INPUT   
 NORMF =       0     NORMP =       0     ITOL  =      20     ICUT  =       9
 INTTYP=BEST         GRDTYP=BEST         QMTTOL= 1.0E-06

     $SYSTEM OPTIONS
     ---------------
  REPLICATED MEMORY=   150000000 WORDS (ON EVERY NODE).
 DISTRIBUTED MEMDDI=         150 MILLION WORDS IN AGGREGATE,
 MEMDDI DISTRIBUTED OVER  16 PROCESSORS IS     9375000 WORDS/PROCESSOR.
 TOTAL MEMORY REQUESTED ON EACH PROCESSOR=   159375000 WORDS.
 TIMLIM=      525600.00 MINUTES, OR     365.0 DAYS.
 PARALL= T  BALTYP=  DLB     KDIAG=    0  COREFL= F
 MXSEQ2=     300 MXSEQ3=     150  mem10=         0  mem22=         0

 Using Gaussians for PCM contribution to MEP, params: 0.10000E+01 0.10000E-07

          ----------------
          PROPERTIES INPUT
          ----------------

     MOMENTS            FIELD           POTENTIAL          DENSITY
 IEMOM =       1   IEFLD =       0   IEPOT =       0   IEDEN =       0
 WHERE =COMASS     WHERE =NUCLEI     WHERE =NUCLEI     WHERE =NUCLEI  
 OUTPUT=BOTH       OUTPUT=BOTH       OUTPUT=BOTH       OUTPUT=BOTH    
 IEMINT=       0   IEFINT=       0                     IEDINT=       0
                                                       MORB  =       0
          EXTRAPOLATION IN EFFECT
          DIIS IN EFFECT
          DIIS or SOSCF will be reset if energy rises
 ORBITAL PRINTING OPTION: NPREO=     1   154     2     1

     -------------------------------
     INTEGRAL TRANSFORMATION OPTIONS
     -------------------------------
     NWORD  =            0
     CUTOFF = 1.0E-09     MPTRAN =       0
     DIRTRF =       F     AOINTS =DUP     

          -----------------------------
          LOCALIZATION INPUT PARAMETERS
          -----------------------------
           LOCAL=RUEDNBRG      NOUTA=       0
          PRTLOC=       F      NOUTB=       0
          MAXLOC=     250     CVGLOC=1.00E-06
           FCORE=       F     SYMLOC=       F
          MOIDON=       F     EDCOMP=       F
          DIPDCM=       F      NPROT=       0
          QADDCM=       F     DEPRNT=       F
          POLNUM=       F     ORIENT=       F
          POLDYN=       F      VMTOL=1.50E-01
          NPRDTL=       2     IBOYAL=       1

          ----------------------
          INTEGRAL INPUT OPTIONS
          ----------------------
 NOPK  =       1 NORDER=       0 SCHWRZ=       T

     ------------------------------------------
     THE POINT GROUP IS C1 , NAXIS= 0, ORDER= 1
     ------------------------------------------

 -- VARIATIONAL SPACE WILL BE RESTRICTED TO PURE SPHERICAL HARMONICS ONLY --
 AFTER EXCLUDING CONTAMINANT COMBINATIONS FROM THE CARTESIAN GAUSSIAN BASIS
 SET, THE NUMBER OF SPHERICAL HARMONICS KEPT IN THE VARIATION SPACE IS  146

     DIMENSIONS OF THE SYMMETRY SUBSPACES ARE
 A   =  146

 ..... DONE SETTING UP THE RUN .....
 CPU     0: STEP CPU TIME=     0.03 TOTAL CPU TIME=          0.0 (      0.0 MIN)
 TOTAL WALL CLOCK TIME=          0.1 SECONDS, CPU UTILIZATION IS    70.22%

          --------------
          GKSEDA OPTIONS
          --------------
          NMOL  =       2          EDATYP=GKS     
          SUPBAS=       T          RDVECM=       F          ITRTN =       T

 *******************
 GKSEDA IS BEGINNING
 *******************

 NMOL =  2

 MONOMER     ATOM   CHARGE ELECTRON MULTIPLE
 -------------------------------------------
       1        5        0       15        2
       2        5        0       15       -2
 -------------------------------------------

 SAVING MOL INFO REQUIRES    598670 WORDS OF MEMORY.

          ********************
          1 ELECTRON INTEGRALS
          ********************
 ...... END OF ONE-ELECTRON INTEGRALS ......
 CPU     0: STEP CPU TIME=     0.01 TOTAL CPU TIME=          0.0 (      0.0 MIN)
 TOTAL WALL CLOCK TIME=          0.1 SECONDS, CPU UTILIZATION IS    73.13%

          -------------
          GUESS OPTIONS
          -------------
          GUESS =HUCKEL            NORB  =       0          NORDER=       0
          MIX   =       F          PRTMO =       F          PUNMO =       F
          TOLZ  = 1.0E-08          TOLE  = 1.0E-05
          SYMDEN=       F          PURIFY=       F

 INITIAL GUESS ORBITALS GENERATED BY HUCKEL   ROUTINE.
 HUCKEL GUESS REQUIRES    180842 WORDS.

 STATISTICS FOR GENERATION OF SYMMETRY ORBITAL -Q- MATRIX
 NUMBER OF CARTESIAN ATOMIC ORBITALS=        154
 NUMBER OF SPHERICAL CONTAMINANTS DROPPED=     8
 NUMBER OF LINEARLY DEPENDENT MOS DROPPED=     0
 TOTAL NUMBER OF MOS IN VARIATION SPACE=     146

 SYMMETRIES FOR INITIAL GUESS ORBITALS FOLLOW.  ALPHA SET(S).
    15 ORBITALS ARE OCCUPIED (    4 CORE ORBITALS).
     5=A        6=A        7=A        8=A        9=A       10=A       11=A   
    12=A       13=A       14=A       15=A       16=A       17=A       18=A   
    19=A       20=A       21=A       22=A       23=A       24=A       25=A   

 SYMMETRIES FOR INITIAL GUESS ORBITALS FOLLOW.   BETA SET(S).
    15 ORBITALS ARE OCCUPIED (    4 CORE ORBITALS).
     5=A        6=A        7=A        8=A        9=A       10=A       11=A   
    12=A       13=A       14=A       15=A       16=A       17=A       18=A   
    19=A       20=A       21=A       22=A       23=A       24=A       25=A   
 ...... END OF INITIAL ORBITAL SELECTION ......
 CPU     0: STEP CPU TIME=     0.01 TOTAL CPU TIME=          0.1 (      0.0 MIN)
 TOTAL WALL CLOCK TIME=          0.1 SECONDS, CPU UTILIZATION IS    78.14%

          -------------------------
          MONOMER  1 WITH OWN BASIS
          -------------------------

     ------------------------------------------
     THE POINT GROUP IS C1 , NAXIS= 0, ORDER= 1
     ------------------------------------------

 -- VARIATIONAL SPACE WILL BE RESTRICTED TO PURE SPHERICAL HARMONICS ONLY --
 AFTER EXCLUDING CONTAMINANT COMBINATIONS FROM THE CARTESIAN GAUSSIAN BASIS
 SET, THE NUMBER OF SPHERICAL HARMONICS KEPT IN THE VARIATION SPACE IS   73

     DIMENSIONS OF THE SYMMETRY SUBSPACES ARE
 A   =   73

          ********************
          1 ELECTRON INTEGRALS
          ********************
 ...... END OF ONE-ELECTRON INTEGRALS ......
 CPU     0: STEP CPU TIME=     0.01 TOTAL CPU TIME=          0.1 (      0.0 MIN)
 TOTAL WALL CLOCK TIME=          0.1 SECONDS, CPU UTILIZATION IS    78.97%

          -------------
          GUESS OPTIONS
          -------------
          GUESS =HUCKEL            NORB  =       0          NORDER=       0
          MIX   =       F          PRTMO =       F          PUNMO =       F
          TOLZ  = 1.0E-08          TOLE  = 1.0E-05
          SYMDEN=       F          PURIFY=       F

 INITIAL GUESS ORBITALS GENERATED BY HUCKEL   ROUTINE.
 HUCKEL GUESS REQUIRES     47410 WORDS.

 STATISTICS FOR GENERATION OF SYMMETRY ORBITAL -Q- MATRIX
 NUMBER OF CARTESIAN ATOMIC ORBITALS=         77
 NUMBER OF SPHERICAL CONTAMINANTS DROPPED=     4
 NUMBER OF LINEARLY DEPENDENT MOS DROPPED=     0
 TOTAL NUMBER OF MOS IN VARIATION SPACE=      73

 SYMMETRIES FOR INITIAL GUESS ORBITALS FOLLOW.  ALPHA SET(S).
     8 ORBITALS ARE OCCUPIED (    2 CORE ORBITALS).
     3=A        4=A        5=A        6=A        7=A        8=A        9=A   
    10=A       11=A       12=A       13=A       14=A       15=A       16=A   
    17=A       18=A   

 SYMMETRIES FOR INITIAL GUESS ORBITALS FOLLOW.   BETA SET(S).
     7 ORBITALS ARE OCCUPIED (    2 CORE ORBITALS).
     3=A        4=A        5=A        6=A        7=A        8=A        9=A   
    10=A       11=A       12=A       13=A       14=A       15=A       16=A   
    17=A   
 ...... END OF INITIAL ORBITAL SELECTION ......
 CPU     0: STEP CPU TIME=     0.00 TOTAL CPU TIME=          0.1 (      0.0 MIN)
 TOTAL WALL CLOCK TIME=          0.1 SECONDS, CPU UTILIZATION IS    79.72%

                    ----------------------
                    AO INTEGRAL TECHNOLOGY
                    ----------------------
     S,P,L SHELL ROTATED AXIS INTEGRALS, REPROGRAMMED BY
        KAZUYA ISHIMURA (IMS) AND JOSE SIERRA (SYNSTAR).
     S,P,D,L SHELL ROTATED AXIS INTEGRALS PROGRAMMED BY
        KAZUYA ISHIMURA (INSTITUTE FOR MOLECULAR SCIENCE).
     S,P,D,F,G SHELL TO TOTAL QUARTET ANGULAR MOMENTUM SUM 5,
        ERIC PROGRAM BY GRAHAM FLETCHER (ELORET AND NASA ADVANCED
        SUPERCOMPUTING DIVISION, AMES RESEARCH CENTER).
     S,P,D,F,G,L SHELL GENERAL RYS QUADRATURE PROGRAMMED BY
        MICHEL DUPUIS (PACIFIC NORTHWEST NATIONAL LABORATORY).

          --------------------
          2 ELECTRON INTEGRALS
          --------------------

 THE -PK- OPTION IS OFF, THE INTEGRALS ARE NOT IN SUPERMATRIX FORM.
 STORING   15000 INTEGRALS/RECORD ON DISK, USING 12 BYTES/INTEGRAL.
 TWO ELECTRON INTEGRAL EVALUATION REQUIRES   90957 WORDS OF MEMORY.
 SCHWARZ INEQUALITY OVERHEAD:      3003 INTEGRALS, T=        0.00
 II,JST,KST,LST =  1  1  1  1 NREC =         1 INTLOC =    1
 II,JST,KST,LST =  2  1  1  1 NREC =         1 INTLOC =    1
 II,JST,KST,LST =  3  1  1  1 NREC =         1 INTLOC =    1
 II,JST,KST,LST =  4  1  1  1 NREC =         1 INTLOC =    1
 II,JST,KST,LST =  5  1  1  1 NREC =         1 INTLOC =    1
 II,JST,KST,LST =  6  1  1  1 NREC =         1 INTLOC =    1
 II,JST,KST,LST =  7  1  1  1 NREC =         1 INTLOC =    4
 II,JST,KST,LST =  8  1  1  1 NREC =         1 INTLOC =  250
 II,JST,KST,LST =  9  1  1  1 NREC =         1 INTLOC =  250
 II,JST,KST,LST = 10  1  1  1 NREC =         1 INTLOC =  250
 II,JST,KST,LST = 11  1  1  1 NREC =         1 INTLOC =  288
 II,JST,KST,LST = 12  1  1  1 NREC =         1 INTLOC = 1614
 II,JST,KST,LST = 13  1  1  1 NREC =         1 INTLOC = 1614
 II,JST,KST,LST = 14  1  1  1 NREC =         1 INTLOC = 1614
 II,JST,KST,LST = 15  1  1  1 NREC =         1 INTLOC = 2722
 II,JST,KST,LST = 16  1  1  1 NREC =         1 INTLOC = 5533
 II,JST,KST,LST = 17  1  1  1 NREC =         1 INTLOC = 5533
 II,JST,KST,LST = 18  1  1  1 NREC =         1 INTLOC = 7480
 II,JST,KST,LST = 19  1  1  1 NREC =         1 INTLOC =13697
 II,JST,KST,LST = 20  1  1  1 NREC =         1 INTLOC =13697
 II,JST,KST,LST = 21  1  1  1 NREC =         1 INTLOC =13697
 II,JST,KST,LST = 22  1  1  1 NREC =         2 INTLOC =10865
 II,JST,KST,LST = 23  1  1  1 NREC =         3 INTLOC =13427
 II,JST,KST,LST = 24  1  1  1 NREC =         5 INTLOC =11708
 II,JST,KST,LST = 25  1  1  1 NREC =         6 INTLOC = 9277
 II,JST,KST,LST = 26  1  1  1 NREC =         8 INTLOC =  180
 II,JST,KST,LST = 27  1  1  1 NREC =         8 INTLOC =12270
 II,JST,KST,LST = 28  1  1  1 NREC =         9 INTLOC =13028
 II,JST,KST,LST = 29  1  1  1 NREC =        10 INTLOC =12649
 II,JST,KST,LST = 30  1  1  1 NREC =        12 INTLOC = 2835
 II,JST,KST,LST = 31  1  1  1 NREC =        12 INTLOC = 7511
 II,JST,KST,LST = 32  1  1  1 NREC =        14 INTLOC = 7928
 II,JST,KST,LST = 33  1  1  1 NREC =        16 INTLOC = 6192
 SCHWARZ INEQUALITY TEST SKIPPED           0 INTEGRAL BLOCKS.
 TOTAL NUMBER OF NONZERO TWO-ELECTRON INTEGRALS =             3899026
        267 INTEGRAL RECORDS WERE STORED ON DISK FILE  8.
  ...... END OF TWO-ELECTRON INTEGRALS .....
 CPU     0: STEP CPU TIME=     0.03 TOTAL CPU TIME=          0.1 (      0.0 MIN)
 TOTAL WALL CLOCK TIME=          0.1 SECONDS, CPU UTILIZATION IS    82.27%

          ---------------------------
              U-B3LYP SCF CALCULATION
          ---------------------------

     NUCLEAR ENERGY =        27.8810212544
     MAXIT = 30     NPUNCH=  2     MULT=  2
     EXTRAP=T  DAMP=F  SHIFT=F  RSTRCT=F  DIIS=T  SOSCF=T
         DENSITY MATRIX CONVERGENCE THRESHOLD=  1.00E-05
     COARSE -> FINE DFT GRID SWITCH THRESHOLD=  3.00E-04 (SWITCH IN $DFT)
                   HF -> DFT SWITCH THRESHOLD=  5.00E-03 (SWOFF IN $DFT)
     SOSCF WILL OPTIMIZE     520 ALPHA AND     462 BETA ROTATION ANGLES.
     SOGTOL= 2.500E-01
     MEMORY REQUIRED FOR UHF/ROHF ITERS=    298732 WORDS.

     EXCHANGE FUNCTIONAL   =B88&HFX   
     CORRELATION FUNCTIONAL=LYP88&VWN5
     DFT THRESHOLD         =.690E-08
     GRID CHANGE THRESHOLD =.300E-03
 FOR AN EULER-MACLAURIN QUADRATURE USING  96 RADIAL POINTS:
 SMALLEST GAUSSIAN PRIMITIVE EXPONENT=        0.0297400000 OF TYPE -S-
 ON ATOM NUMBER   3 HAS RADIAL NORMALIZATION=  1.000000
  LARGEST GAUSSIAN PRIMITIVE EXPONENT=     6665.0000000000 OF TYPE -S-
 ON ATOM NUMBER   1 HAS RADIAL NORMALIZATION=  1.000000
 DFT IS SWITCHED OFF, PERFORMING PURE SCF UNTIL SWOFF THRESHOLD IS REACHED.

 ITER EX      TOTAL ENERGY        E CHANGE  DENSITY CHANGE    DIIS ERROR
          * * *   INITIATING DIIS PROCEDURE   * * *
   1  0      -77.1746922310   -77.1746922310   0.500657203   0.357381477
   2  1      -77.3687577190    -0.1940654880   0.154674092   0.054033642
   3  2      -77.3847996979    -0.0160419789   0.031178534   0.025919518
   4  3      -77.3892003872    -0.0044006893   0.022101198   0.011184841
   5  4      -77.3905863855    -0.0013859983   0.012891142   0.008531930
   6  5      -77.3912321778    -0.0006457923   0.024482219   0.008524434
   7  6      -77.3922982449    -0.0010660670   0.064588444   0.008268198
   8  7      -77.3946708486    -0.0023726037   0.109777116   0.006382338
   9  8      -77.3961946978    -0.0015238492   0.065271860   0.001936606
  10  9      -77.3957892000     0.0004054978   0.041528528   0.003989768
  11 10      -77.3962598091    -0.0004706092   0.006198612   0.000669563
  12 11      -77.3962721911    -0.0000123820   0.001173421   0.000117467
 CONVERGED TO SWOFF, SO DFT CALCULATION IS NOW SWITCHED ON.
          * * *   INITIATING DIIS PROCEDURE   * * *
  13 12      -77.8301614540    -0.4338892629   0.393312874   0.062400701
  14 13      -77.8467409040    -0.0165794500   0.062593751   0.016697303
  15 14      -77.8494147216    -0.0026738176   0.024680519   0.011961020
  16 15      -77.8508690704    -0.0014543487   0.050472372   0.007358192
  17 16      -77.8518456801    -0.0009766097   0.009130750   0.003384187
  18 17      -77.8519272060    -0.0000815260   0.005952068   0.001414408
  19 18      -77.8519468883    -0.0000196823   0.002010001   0.000278911
         SWDIIS THRESHOLD HAS BEEN REACHED: SWITCHING DIIS OFF.
          ---------------START SECOND ORDER SCF---------------
  20 19      -77.8519480372    -0.0000011488   0.000135902   0.000021601
  21 20      -77.8519480501    -0.0000000129   0.000156057   0.000022760
  22 21      -77.8519480506    -0.0000000005   0.000065973   0.000022273
  23 22      -77.8519480551    -0.0000000045   0.000008423   0.000002377
  24 23      -77.8519480552    -0.0000000001   0.000011586   0.000001866

          ----------------
          ENERGY CONVERGED
          ----------------
     TIME TO FORM FOCK OPERATORS=       1.2 SECONDS (       0.1 SEC/ITER)
     TIME TO SOLVE SCF EQUATIONS=       0.1 SECONDS (       0.0 SEC/ITER)

 FINAL U-B3LYP ENERGY IS      -77.8519480552 AFTER  24 ITERATIONS
 DFT EXCHANGE + CORRELATION ENERGY =        -9.5250737036
 TOTAL ELECTRON NUMBER             =        14.9999884375

          --------------------
          SPIN SZ   =    0.500
          S-SQUARED =    0.764
          --------------------

  ----- ALPHA SET ----- 

          ------------
          EIGENVECTORS
          ------------

                      1          2          3          4          5
                  -10.2290   -10.2018    -0.7671    -0.5779    -0.4646
                     A          A          A          A          A   
    1  C  1  S    0.012221   1.009650  -0.019687   0.011339  -0.002211
    2  C  1  S   -0.001519   0.022162   0.316361  -0.227049   0.001168
    3  C  1  S    0.040234  -0.073386   0.095829  -0.324650  -0.032826
    4  C  1  X   -0.000012   0.000012   0.000020  -0.000924  -0.000971
    5  C  1  Y   -0.000025  -0.000008   0.007690   0.031620   0.341323
    6  C  1  Z   -0.001007  -0.000344   0.110881   0.206915  -0.209596
    7  C  1  X    0.000126   0.000021  -0.000432  -0.000654  -0.000810
    8  C  1  Y   -0.001354  -0.000247   0.024283   0.026939  -0.016766
    9  C  1  Z    0.038650  -0.008958  -0.029702  -0.241959   0.039778
   10  C  1 XX    0.000217  -0.001628  -0.006292   0.001494  -0.001721
   11  C  1 YY    0.000860   0.000840  -0.007596  -0.011329   0.008469
   12  C  1 ZZ   -0.001077   0.000788   0.013888   0.009835  -0.006748
   13  C  1 XY    0.000007   0.000006  -0.000031  -0.000011   0.000046
   14  C  1 XZ   -0.000007   0.000004   0.000031  -0.000228  -0.000241
   15  C  1 YZ    0.000473   0.000045   0.000206   0.002349  -0.006057
   16  C  1  S    0.015276  -0.033982   0.016535   0.138305  -0.059998
   17  C  1  X    0.000005  -0.000004  -0.000116  -0.000282  -0.000192
   18  C  1  Y    0.000772   0.000824  -0.003682   0.008992  -0.058857
   19  C  1  Z    0.006211  -0.003707  -0.001946   0.011852  -0.008656
   20  C  1 XX   -0.002133   0.004869   0.006402  -0.007228  -0.006254
   21  C  1 YY   -0.004476   0.001483  -0.008182   0.105820  -0.044438
   22  C  1 ZZ    0.006609  -0.006352   0.001780  -0.098592   0.050691
   23  C  1 XY    0.000014   0.000009  -0.000631  -0.000677  -0.001000
   24  C  1 XZ    0.000034   0.000002  -0.000038   0.000046   0.000332
   25  C  1 YZ   -0.003138  -0.001062   0.024851   0.019144   0.104897
   26  C  2  S    1.009988  -0.013800  -0.017168  -0.006456  -0.000323
   27  C  2  S    0.022733  -0.001372   0.307102   0.268937  -0.070314
   28  C  2  S   -0.089933   0.024523   0.253420   0.493159  -0.240639
   29  C  2  X   -0.000061  -0.000006  -0.001497  -0.004697  -0.004507
   30  C  2  Y    0.000899   0.000106   0.024310   0.097725   0.255111
   31  C  2  Z   -0.000221   0.000914  -0.128427   0.119402   0.163130
   32  C  2  X    0.000203   0.000075   0.001399   0.002056  -0.000117
   33  C  2  Y   -0.003187  -0.001146  -0.057793  -0.092633   0.008652
   34  C  2  Z    0.030733  -0.016871  -0.091493  -0.220443   0.063027
   35  C  2 XX   -0.000856   0.000674  -0.011449  -0.001415  -0.000460
   36  C  2 YY    0.000517   0.000641  -0.003913   0.009835   0.005692
   37  C  2 ZZ    0.000339  -0.001314   0.015362  -0.008419  -0.005231
   38  C  2 XY   -0.000045  -0.000006   0.000121  -0.000241  -0.000492
   39  C  2 XZ   -0.000042   0.000000   0.000058  -0.000211  -0.000197
   40  C  2 YZ    0.000889   0.000039  -0.006120  -0.001651  -0.009718
   41  C  2  S   -0.029059   0.019829  -0.018888  -0.118519   0.021837
   42  C  2  X    0.000039   0.000046   0.000234   0.000892   0.000158
   43  C  2  Y   -0.001411  -0.001332  -0.000283  -0.026841   0.018171
   44  C  2  Z    0.004239  -0.005769   0.006660   0.004879  -0.013215
   45  C  2 XX    0.005995  -0.001052  -0.006867   0.006274   0.001207
   46  C  2 YY    0.004301  -0.001756  -0.017745  -0.059688  -0.008198
   47  C  2 ZZ   -0.010296   0.002808   0.024612   0.053414   0.006991
   48  C  2 XY    0.000041   0.000008   0.001244   0.001929   0.001115
   49  C  2 XZ    0.000135   0.000024   0.000163   0.000693   0.000526
   50  C  2 YZ   -0.004272  -0.001156   0.008729  -0.022330   0.013109
   51  H  3  S   -0.000660  -0.000100   0.124019   0.258998   0.193924
   52  H  3  S    0.021377   0.007202   0.065016   0.272403   0.108052
   53  H  3  X   -0.000065   0.000007   0.000470   0.000806   0.000498
   54  H  3  Y    0.001716  -0.000008  -0.012723  -0.016829  -0.005881
   55  H  3  Z    0.000738   0.000184  -0.011292  -0.009999  -0.005262
   56  H  3  S    0.001302   0.001933   0.003493   0.025899   0.010330
   57  H  3  X    0.000321   0.000099  -0.000015   0.002795  -0.000027
   58  H  3  Y   -0.007699  -0.002221  -0.007738  -0.042300  -0.011795
   59  H  3  Z   -0.002016  -0.000916  -0.017541  -0.029542  -0.010600
   60  H  4  S   -0.000349  -0.000854   0.116831  -0.228997  -0.141516
   61  H  4  S    0.017768   0.021920  -0.010671  -0.217777  -0.199171
   62  H  4  X    0.000001  -0.000005   0.000045  -0.000165  -0.000109
   63  H  4  Y   -0.000211  -0.001550   0.014401  -0.016889   0.000576
   64  H  4  Z   -0.000610  -0.001014   0.012532  -0.005345  -0.009991
   65  H  4  S    0.001774   0.002007   0.000056  -0.012810  -0.041654
   66  H  4  X    0.000020   0.000036  -0.000192  -0.000553  -0.000606
   67  H  4  Y    0.004850   0.006798  -0.009320  -0.020721  -0.049787
   68  H  4  Z    0.002433   0.003029   0.008894  -0.033903   0.011183
   69  H  5  S   -0.000191  -0.000915   0.126403  -0.202935   0.341317
   70  H  5  S    0.009342   0.019035   0.014714  -0.225122   0.435181
   71  H  5  X   -0.000005  -0.000001  -0.000023   0.000062  -0.000096
   72  H  5  Y   -0.000078   0.001520  -0.014504   0.016630  -0.010243
   73  H  5  Z   -0.000420  -0.000947   0.011309  -0.004937   0.005122
   74  H  5  S    0.001699   0.001127   0.002204  -0.013741   0.045644
   75  H  5  X   -0.000022  -0.000015   0.000428   0.000806   0.000377
   76  H  5  Y   -0.002372  -0.006016   0.000695   0.020063  -0.072539
   77  H  5  Z    0.001986   0.002965  -0.002014  -0.053582   0.040810

                      6          7          8          9         10
                   -0.4138    -0.2853    -0.2730    -0.0195    -0.0019
                     A          A          A          A          A   
    1  C  1  S    0.000021  -0.000067   0.000595   0.000113  -0.002997
    2  C  1  S   -0.036300  -0.007216   0.050050   0.001829   0.084518
    3  C  1  S   -0.170305  -0.004498   0.022302   0.003863   0.345771
    4  C  1  X   -0.004267   0.389475   0.046601   0.403609  -0.000710
    5  C  1  Y   -0.254957   0.013490  -0.133954  -0.001997   0.029384
    6  C  1  Z   -0.320108  -0.017935   0.111906   0.001049  -0.096172
    7  C  1  X   -0.001942   0.214453   0.026391   0.338854  -0.000970
    8  C  1  Y    0.060506  -0.005117   0.032214   0.000194   0.042255
    9  C  1  Z   -0.092538   0.001771  -0.021771   0.000849  -0.283561
   10  C  1 XX   -0.001156   0.000016   0.000537   0.000076   0.000938
   11  C  1 YY    0.010678   0.000130  -0.000640   0.000015  -0.002785
   12  C  1 ZZ   -0.009522  -0.000146   0.000103  -0.000091   0.001847
   13  C  1 XY   -0.000068   0.000616   0.000020   0.000046   0.000063
   14  C  1 XZ   -0.000551   0.021565   0.002399  -0.030078  -0.000050
   15  C  1 YZ    0.013672  -0.003916   0.040317  -0.001035   0.001417
   16  C  1  S   -0.039072  -0.021425   0.156375  -0.001948   1.299785
   17  C  1  X   -0.000352   0.028506   0.003928   0.564300   0.003041
   18  C  1  Y    0.051211  -0.001977   0.019965  -0.002435   0.037488
   19  C  1  Z   -0.015055  -0.005622   0.039714  -0.002225  -0.297241
   20  C  1 XX    0.000115   0.000631  -0.005615  -0.000263  -0.039364
   21  C  1 YY   -0.044247  -0.004215   0.028813   0.000064   0.024921
   22  C  1 ZZ    0.044133   0.003583  -0.023198   0.000200   0.014443
   23  C  1 XY   -0.001210   0.004524   0.000252  -0.003304   0.000054
   24  C  1 XZ   -0.000061   0.003740   0.000202  -0.041902  -0.000223
   25  C  1 YZ   -0.051648   0.003280  -0.034990   0.002155   0.026953
   26  C  2  S   -0.000890  -0.000043  -0.000785   0.000084  -0.002536
   27  C  2  S    0.030676   0.020909  -0.150181  -0.003749   0.056056
   28  C  2  S   -0.055187   0.041061  -0.309929  -0.009120   0.366906
   29  C  2  X   -0.009026   0.440032   0.047539  -0.411628  -0.001436
   30  C  2  Y    0.035272  -0.046732   0.472190  -0.010317   0.043689
   31  C  2  Z    0.374625   0.038239  -0.253544  -0.004417   0.082571
   32  C  2  X    0.000096   0.254301   0.030898  -0.348709  -0.004471
   33  C  2  Y   -0.066506  -0.021111   0.241639  -0.011893   0.098692
   34  C  2  Z    0.044604   0.029744  -0.220987  -0.002629  -0.007121
   35  C  2 XX   -0.001605   0.000176  -0.004807   0.000179  -0.001695
   36  C  2 YY    0.011035   0.000362   0.000040  -0.000019  -0.004877
   37  C  2 ZZ   -0.009429  -0.000539   0.004767  -0.000161   0.006572
   38  C  2 XY   -0.000465  -0.000465  -0.000837  -0.000087   0.000055
   39  C  2 XZ   -0.000245  -0.020293  -0.002562  -0.032145   0.000019
   40  C  2 YZ    0.017776  -0.002171   0.020277   0.000531  -0.003601
   41  C  2  S   -0.014013   0.033922  -0.259511  -0.003817   0.870394
   42  C  2  X    0.001060   0.031140   0.004148  -0.516147  -0.008238
   43  C  2  Y   -0.035850  -0.001778   0.023882  -0.006974   0.190741
   44  C  2  Z   -0.015352  -0.001581   0.007097  -0.004962   0.148582
   45  C  2 XX   -0.004114  -0.001227   0.006866   0.000057  -0.039496
   46  C  2 YY   -0.036932   0.003004  -0.022867  -0.000272  -0.012624
   47  C  2 ZZ    0.041046  -0.001777   0.016002   0.000215   0.052120
   48  C  2 XY    0.002333  -0.001383   0.000311   0.008358  -0.001517
   49  C  2 XZ    0.000440  -0.007169  -0.000620  -0.037650  -0.000922
   50  C  2 YZ   -0.017160   0.000804  -0.012065   0.001841   0.033309
   51  H  3  S    0.233107  -0.021730   0.194793   0.008256   0.005305
   52  H  3  S    0.278293  -0.028128   0.248618   0.008391  -0.358501
   53  H  3  X    0.000195   0.015539   0.002149  -0.020932   0.000415
   54  H  3  Y   -0.009257  -0.000299   0.006843  -0.000455  -0.010673
   55  H  3  Z    0.001036   0.002252  -0.015786  -0.000180  -0.001572
   56  H  3  S    0.036872  -0.002299   0.027561   0.008940  -0.899788
   57  H  3  X    0.001283   0.015090   0.003638  -0.053600  -0.001470
   58  H  3  Y   -0.038759   0.002467  -0.017735   0.000996   0.031708
   59  H  3  Z   -0.036486   0.004225  -0.028953   0.000403   0.033064
   60  H  4  S    0.324763  -0.013156   0.145437  -0.004124   0.006831
   61  H  4  S    0.390702  -0.017047   0.193323  -0.007365  -0.404369
   62  H  4  X   -0.000099   0.014321   0.001747   0.021808   0.000028
   63  H  4  Y    0.009653   0.000061  -0.000823   0.000047   0.009660
   64  H  4  Z    0.003099  -0.000707   0.005086   0.000234   0.002020
   65  H  4  S    0.035688  -0.003556   0.039745  -0.014324  -0.637402
   66  H  4  X    0.000029   0.015605   0.002025   0.045321  -0.000708
   67  H  4  Y    0.054968  -0.003758   0.035463   0.000067  -0.063729
   68  H  4  Z    0.052158  -0.000239   0.003388   0.001913  -0.016882
   69  H  5  S   -0.072176   0.023115  -0.208797   0.002952   0.003849
   70  H  5  S   -0.183008   0.037415  -0.335712   0.005687  -0.420325
   71  H  5  X   -0.000097   0.014262   0.001770   0.022662   0.000007
   72  H  5  Y   -0.003197  -0.000102  -0.000096  -0.000017  -0.012232
   73  H  5  Z   -0.010873  -0.000104   0.000268  -0.000135   0.003419
   74  H  5  S   -0.043059   0.003275  -0.041726   0.004348  -1.138535
   75  H  5  X    0.000964   0.012664   0.002012   0.052838   0.000194
   76  H  5  Y    0.051008  -0.004667   0.042967   0.000046   0.036523
   77  H  5  Z   -0.005786   0.003300  -0.022872  -0.001101  -0.024975

                     11         12         13         14         15
                    0.0149     0.0250     0.0627     0.0712     0.0790
                     A          A          A          A          A   
    1  C  1  S   -0.001255   0.002372   0.001046   0.007703   0.002921
    2  C  1  S    0.067564  -0.017201  -0.001478  -0.011939   0.044171
    3  C  1  S    0.184653  -0.128268  -0.056518  -0.389633   0.153325
    4  C  1  X   -0.001458  -0.001665   0.171788  -0.017151   0.001716
    5  C  1  Y   -0.067259  -0.118570   0.002292   0.036990   0.011396
    6  C  1  Z   -0.036309   0.005145   0.000788   0.013849   0.054247
    7  C  1  X   -0.001546  -0.003847   0.199076  -0.019359  -0.001355
    8  C  1  Y   -0.171161  -0.371927   0.004047   0.101319   0.010086
    9  C  1  Z   -0.273628   0.105390  -0.009340   0.031307  -0.046852
   10  C  1 XX    0.002809  -0.003172  -0.000495  -0.007380  -0.006791
   11  C  1 YY    0.004857  -0.001732   0.000128   0.001040  -0.010955
   12  C  1 ZZ   -0.007666   0.004904   0.000366   0.006340   0.017746
   13  C  1 XY   -0.000122  -0.000003  -0.000880   0.000067  -0.000078
   14  C  1 XZ    0.000347  -0.000010   0.006138  -0.000298  -0.000110
   15  C  1 YZ   -0.004807  -0.003817  -0.000978  -0.010509   0.003000
   16  C  1  S    0.431648  -1.736056  -1.224807 -10.810941   1.499269
   17  C  1  X   -0.014857  -0.002849  -0.625137   0.072071  -0.003461
   18  C  1  Y   -0.201253  -1.941771   0.095056   0.428328  -0.493461
   19  C  1  Z   -0.532294  -0.364676  -0.514876  -4.814068  -1.564901
   20  C  1 XX   -0.010933   0.016529   0.008283   0.081427   0.022900
   21  C  1 YY    0.022450  -0.051219  -0.012442  -0.153544   0.016996
   22  C  1 ZZ   -0.011517   0.034690   0.004159   0.072117  -0.039897
   23  C  1 XY   -0.000919   0.000832   0.024005  -0.002065   0.001486
   24  C  1 XZ    0.001022  -0.000697   0.040654  -0.004740   0.000050
   25  C  1 YZ   -0.043327   0.099920  -0.003814   0.004474   0.114632
   26  C  2  S   -0.001252  -0.000749  -0.001010  -0.005487   0.005495
   27  C  2  S   -0.072970   0.047991   0.003869   0.040718   0.030521
   28  C  2  S   -0.230454   0.243842   0.066439   0.430555   0.052291
   29  C  2  X    0.005245   0.000021   0.127806  -0.009508   0.000257
   30  C  2  Y   -0.085134  -0.046008  -0.011102  -0.141917   0.061188
   31  C  2  Z   -0.027941   0.023388   0.001700   0.004560  -0.075684
   32  C  2  X    0.010122  -0.003330   0.144650  -0.023409   0.006611
   33  C  2  Y   -0.159731   0.092707   0.026040   0.115068  -0.142806
   34  C  2  Z   -0.250303   0.149247  -0.006519   0.043165  -0.065215
   35  C  2 XX   -0.003383   0.001487  -0.000263   0.001423  -0.010037
   36  C  2 YY   -0.001786   0.002135   0.000407  -0.000572  -0.013455
   37  C  2 ZZ    0.005168  -0.003621  -0.000144  -0.000851   0.023492
   38  C  2 XY   -0.000275   0.000014   0.003900  -0.000218   0.000123
   39  C  2 XZ    0.000053   0.000151  -0.013355   0.001279   0.000045
   40  C  2 YZ    0.008181   0.007576   0.000167   0.001987  -0.006674
   41  C  2  S   -0.494341   2.271187   1.252571  11.109195  -0.300542
   42  C  2  X    0.031610  -0.010865  -0.589878   0.071922  -0.012076
   43  C  2  Y   -0.556246   1.022702  -0.033344   0.319116  -0.061367
   44  C  2  Z   -0.626729  -0.230577  -0.491893  -4.176346   1.878926
   45  C  2 XX    0.007720  -0.041109  -0.007047  -0.075972   0.063254
   46  C  2 YY   -0.063157   0.032850   0.005759   0.084387  -0.027457
   47  C  2 ZZ    0.055437   0.008259   0.001288  -0.008415  -0.035796
   48  C  2 XY    0.003415  -0.002286  -0.039852  -0.002066   0.001026
   49  C  2 XZ    0.002430  -0.002840  -0.015453  -0.000236  -0.002525
   50  C  2 YZ   -0.072527   0.085043   0.002939   0.059552   0.083022
   51  H  3  S    0.016331   0.015063  -0.000706  -0.022650  -0.017405
   52  H  3  S    0.671645  -0.545494  -0.092278  -0.847262   0.216981
   53  H  3  X   -0.000323   0.000168  -0.005777   0.000225   0.000282
   54  H  3  Y    0.010269   0.000132   0.000921   0.009756  -0.008453
   55  H  3  Z    0.008204  -0.000493   0.000236   0.005349   0.007044
   56  H  3  S    2.557367  -1.430210   0.364990   3.476688  -0.156311
   57  H  3  X    0.003722  -0.006405   0.038176  -0.011684   0.004068
   58  H  3  Y   -0.083153   0.132456   0.018105   0.135740  -0.084817
   59  H  3  Z   -0.021345   0.003445   0.020257   0.140363  -0.096968
   60  H  4  S   -0.009530   0.012715  -0.001909  -0.023513  -0.024313
   61  H  4  S   -0.446368  -0.454448   0.062396   0.589117  -0.347103
   62  H  4  X   -0.000115  -0.000025  -0.003530   0.000430   0.000034
   63  H  4  Y    0.007622   0.002784   0.000205  -0.000175   0.003657
   64  H  4  Z    0.007137   0.002825  -0.000820  -0.010507  -0.011205
   65  H  4  S   -2.038536  -3.109084   0.031251   0.443751  -1.129179
   66  H  4  X   -0.000774   0.000179   0.070304  -0.006902   0.001350
   67  H  4  Y   -0.060119  -0.053158   0.001997   0.032979  -0.011974
   68  H  4  Z   -0.008022  -0.053040   0.011938   0.144309   0.030001
   69  H  5  S    0.002779  -0.002471   0.002065   0.025354  -0.038341
   70  H  5  S   -0.161069   0.859951   0.036470   0.405345   0.097092
   71  H  5  X   -0.000220  -0.000023  -0.004195   0.000363  -0.000051
   72  H  5  Y   -0.002492   0.004216  -0.000020  -0.001363  -0.006303
   73  H  5  Z    0.003258  -0.007300  -0.000308  -0.002380  -0.014337
   74  H  5  S   -0.492410   3.802673  -0.446667  -4.333784   0.587631
   75  H  5  X    0.000543  -0.001121   0.030639  -0.005875   0.000417
   76  H  5  Y    0.063859  -0.091679  -0.001280  -0.002487  -0.090896
   77  H  5  Z    0.051343   0.068399   0.011886   0.100394   0.038066

                     16         17         18         19         20
                    0.1117     0.1127     0.1167     0.1279     0.1459
                     A          A          A          A          A   
    1  C  1  S    0.005606   0.001853  -0.038821  -0.014858  -0.015073
    2  C  1  S   -0.058591  -0.010503  -0.204860  -0.018980  -0.121086
    3  C  1  S   -0.996018  -0.236051   0.320628   0.524670   0.537644
    4  C  1  X   -0.052262   0.230725   0.001962   0.004433  -0.001689
    5  C  1  Y    0.110996   0.024103  -0.084326   0.237422   0.040570
    6  C  1  Z    0.002366   0.000162   0.121603   0.000533   0.131189
    7  C  1  X   -0.042633   0.182522  -0.000340  -0.001057  -0.008326
    8  C  1  Y   -0.415208  -0.093666   0.296176  -0.929973  -0.171472
    9  C  1  Z   -1.218677  -0.270409  -1.554139  -0.380192   1.547076
   10  C  1 XX    0.001047  -0.000081   0.019899   0.016714  -0.039567
   11  C  1 YY   -0.000304   0.000059   0.003766  -0.008230   0.048893
   12  C  1 ZZ   -0.000743   0.000022  -0.023665  -0.008485  -0.009327
   13  C  1 XY   -0.000654   0.001126  -0.000069   0.000556  -0.000271
   14  C  1 XZ    0.000980  -0.006830   0.000032  -0.000018   0.000232
   15  C  1 YZ    0.023817   0.004948  -0.007258   0.009299  -0.016639
   16  C  1  S   -5.618218  -1.228058   5.082621   5.295723   0.191146
   17  C  1  X    0.465419  -2.188244  -0.023393  -0.013249   0.003587
   18  C  1  Y   -0.294767  -0.083337   1.846284  -6.050592  -2.453397
   19  C  1  Z   -3.551784  -0.765181  -1.936498   1.713134   0.577261
   20  C  1 XX    0.045477   0.012926  -0.160757  -0.037225  -0.096109
   21  C  1 YY    0.182292   0.037670   0.343419   0.202381  -0.660540
   22  C  1 ZZ   -0.227768  -0.050596  -0.182662  -0.165156   0.756649
   23  C  1 XY    0.006336  -0.033327   0.000640   0.000550   0.000645
   24  C  1 XZ    0.014509  -0.055451  -0.001904  -0.001209  -0.000422
   25  C  1 YZ   -0.060015  -0.013982  -0.015170   0.330892   0.323489
   26  C  2  S    0.008318   0.002589  -0.036042  -0.026368   0.024684
   27  C  2  S    0.109994   0.025689  -0.112588  -0.099424   0.013468
   28  C  2  S    0.482723   0.086545   1.285682   0.782359  -2.188387
   29  C  2  X    0.045858  -0.237035  -0.001998  -0.001466   0.005966
   30  C  2  Y    0.178501   0.034498  -0.007334   0.001624  -0.092255
   31  C  2  Z    0.058908   0.012385  -0.085089  -0.008697  -0.067412
   32  C  2  X    0.070847  -0.218027  -0.009736  -0.016354   0.012408
   33  C  2  Y   -0.353915  -0.105271   0.135156   0.402227  -0.513446
   34  C  2  Z   -1.350337  -0.315145  -0.893732   0.124863   1.089960
   35  C  2 XX   -0.004672  -0.000961   0.005457   0.013620  -0.011848
   36  C  2 YY    0.005940   0.000958   0.002421  -0.007888   0.017794
   37  C  2 ZZ   -0.001269   0.000003  -0.007878  -0.005732  -0.005946
   38  C  2 XY    0.000568  -0.005969  -0.000370   0.000411  -0.000003
   39  C  2 XZ    0.000854  -0.004054   0.000086  -0.000129   0.000468
   40  C  2 YZ   -0.015896  -0.002934   0.004058  -0.017185   0.001498
   41  C  2  S    4.050140   0.743703   2.621557  -0.913165  -1.970441
   42  C  2  X   -0.379880   2.206127   0.032388  -0.058052  -0.013117
   43  C  2  Y   -2.748526  -0.610029  -0.761926   3.501489   0.704744
   44  C  2  Z   -4.136972  -0.909310  -0.137644   2.247954   1.089516
   45  C  2 XX    0.008066   0.001084  -0.128130  -0.071526  -0.023793
   46  C  2 YY   -0.302351  -0.067983  -0.129359   0.039908   0.196061
   47  C  2 ZZ    0.294284   0.066899   0.257489   0.031618  -0.172268
   48  C  2 XY    0.001133   0.063851  -0.001868  -0.003247  -0.000709
   49  C  2 XZ    0.027758  -0.081011  -0.003632  -0.006337  -0.005541
   50  C  2 YZ   -0.241726  -0.058813   0.095466   0.145082   0.186233
   51  H  3  S   -0.021868   0.000547   0.010427  -0.087309   0.102036
   52  H  3  S    2.204736   0.565809  -0.539762  -1.785346   0.608101
   53  H  3  X    0.000759  -0.000427  -0.000413  -0.000532   0.000270
   54  H  3  Y   -0.019299  -0.004859   0.011437   0.011015  -0.008262
   55  H  3  Z   -0.011810  -0.003134  -0.001862   0.015078  -0.005188
   56  H  3  S    6.052792   1.392784   0.157196  -3.842213  -0.771245
   57  H  3  X    0.044890  -0.111973  -0.010675  -0.018139   0.003438
   58  H  3  Y   -0.600050  -0.149541   0.246938   0.280773   0.212893
   59  H  3  Z   -0.379484  -0.092087   0.067710   0.161220  -0.141135
   60  H  4  S    0.027774   0.004210  -0.002358  -0.058046   0.099969
   61  H  4  S   -1.054523  -0.224247  -1.677005  -3.137198   0.713318
   62  H  4  X    0.000110  -0.000261  -0.000036  -0.000015  -0.000120
   63  H  4  Y   -0.010673  -0.002425  -0.009500  -0.022829  -0.024205
   64  H  4  Z   -0.008730  -0.001999  -0.000929  -0.011051   0.005782
   65  H  4  S   -3.821512  -0.826692  -0.769575  -5.115230  -1.973681
   66  H  4  X   -0.016903   0.088453  -0.000818  -0.007131   0.002339
   67  H  4  Y   -0.323870  -0.068284  -0.441138  -0.570059  -0.476781
   68  H  4  Z   -0.299168  -0.061337  -0.206097  -0.568935   0.398659
   69  H  5  S   -0.020269  -0.001896  -0.017637  -0.022924   0.225952
   70  H  5  S   -0.041306   0.011162  -2.732788   1.094156   2.822519
   71  H  5  X   -0.000285   0.001514   0.000102   0.000057  -0.000114
   72  H  5  Y   -0.007904  -0.002084   0.026081  -0.016553   0.011486
   73  H  5  Z    0.000649   0.000209  -0.013673   0.014694  -0.000221
   74  H  5  S   -1.212548  -0.259275  -4.240986   6.555106   2.817128
   75  H  5  X   -0.026002   0.118841   0.000541   0.005566  -0.004988
   76  H  5  Y   -0.007053  -0.002957   0.669593  -0.420783   0.141395
   77  H  5  Z    0.102255   0.023973  -0.422384   0.163337   0.435772

                     21         22         23         24         25
                    0.1685     0.1954     0.2193     0.2532     0.2857
                     A          A          A          A          A   
    1  C  1  S    0.049131   0.018757   0.000464  -0.005179  -0.010030
    2  C  1  S    0.157793   0.012525   0.000461  -0.030539  -0.137177
    3  C  1  S   -2.130381  -0.562260   0.015395   0.752383   0.400545
    4  C  1  X   -0.004779   0.003207   0.001962  -0.000475   0.002395
    5  C  1  Y   -0.066011   0.123528  -0.019969  -0.199622   0.008629
    6  C  1  Z   -0.061597  -0.020595   0.000971   0.075134  -0.015389
    7  C  1  X   -0.007590  -0.013252  -0.068151   0.002148   0.006099
    8  C  1  Y   -0.092889   0.602444  -0.035885  -0.226573   0.089351
    9  C  1  Z   -1.015019   1.221055   0.090171   0.739694   2.422451
   10  C  1 XX    0.014242  -0.024879   0.000020  -0.015316  -0.023729
   11  C  1 YY   -0.005855   0.025894  -0.000684   0.017296  -0.073764
   12  C  1 ZZ   -0.008387  -0.001014   0.000665  -0.001980   0.097493
   13  C  1 XY   -0.001676   0.001120   0.047400  -0.003373   0.000481
   14  C  1 XZ    0.000641  -0.000566  -0.002650  -0.000437   0.000856
   15  C  1 YZ   -0.037642   0.037330  -0.005083  -0.031594  -0.013017
   16  C  1  S  -18.290916 -20.828430  -0.881090 -10.331978   2.303181
   17  C  1  X   -0.017201  -0.004150   0.016913   0.001373   0.011240
   18  C  1  Y   -0.148073   2.487065  -0.113723  -1.747908  -0.969108
   19  C  1  Z   -6.195775  -5.906118  -0.264874  -2.261787   4.007541
   20  C  1 XX    0.179591   0.120383  -0.006656   0.085596  -0.276304
   21  C  1 YY    0.141149  -0.559969  -0.008882  -0.204848   0.124812
   22  C  1 ZZ   -0.320740   0.439586   0.015538   0.119252   0.151492
   23  C  1 XY    0.001375   0.000123  -0.178542   0.022381  -0.013490
   24  C  1 XZ   -0.001062  -0.011738  -0.015078   0.003684  -0.005263
   25  C  1 YZ    0.448512  -0.194517   0.074385   0.859847   0.210634
   26  C  2  S   -0.045698  -0.017639  -0.000402  -0.004347   0.034219
   27  C  2  S   -0.197990  -0.048688  -0.001791  -0.000468   0.163036
   28  C  2  S    1.619834  -0.513999   0.000068  -0.348144  -0.655102
   29  C  2  X    0.006774  -0.009907  -0.040241  -0.004171   0.006016
   30  C  2  Y   -0.038995   0.063572   0.016031   0.287726  -0.039035
   31  C  2  Z   -0.109914  -0.006097  -0.004242   0.021260  -0.249820
   32  C  2  X    0.003329  -0.032305  -0.234328  -0.017513   0.000868
   33  C  2  Y   -0.153387   0.792453   0.038416   0.383241   0.421408
   34  C  2  Z   -1.208872   1.126538   0.076255   0.780287   1.588121
   35  C  2 XX   -0.016285   0.012192  -0.000950   0.014635   0.029393
   36  C  2 YY    0.011568   0.003549   0.000980  -0.021621   0.021718
   37  C  2 ZZ    0.004717  -0.015740  -0.000030   0.006986  -0.051111
   38  C  2 XY   -0.002084   0.001520   0.021972  -0.000200  -0.001276
   39  C  2 XZ   -0.000010   0.001413   0.009172  -0.000250  -0.000480
   40  C  2 YZ    0.017984  -0.052537   0.003550   0.010194  -0.007630
   41  C  2  S   18.510736  20.979733   0.901167  10.976685  -3.992092
   42  C  2  X    0.075362   0.014236  -0.166333  -0.017609  -0.031132
   43  C  2  Y   -1.680626  -1.007885   0.010107   1.605502   1.298409
   44  C  2  Z   -6.138519  -5.246415  -0.302976  -2.408459   1.598164
   45  C  2 XX   -0.185581  -0.163498   0.008324  -0.003583   0.186527
   46  C  2 YY   -0.167770   0.200492   0.021572   0.199629   0.183570
   47  C  2 ZZ    0.353351  -0.036994  -0.029896  -0.196046  -0.370097
   48  C  2 XY   -0.010235  -0.000585   0.255763  -0.028382   0.005625
   49  C  2 XZ   -0.001412  -0.025418  -0.111891   0.003997  -0.003240
   50  C  2 YZ    0.337798   0.277589   0.041824   0.613135   0.334725
   51  H  3  S    0.177451  -0.180420   0.005074  -0.091537  -0.024311
   52  H  3  S   -0.267126  -3.017170  -0.231403  -2.915003  -2.155425
   53  H  3  X   -0.000114  -0.000468  -0.004116   0.000624  -0.000314
   54  H  3  Y    0.013075  -0.002328   0.000623  -0.003098   0.002443
   55  H  3  Z    0.004948  -0.007257   0.000077  -0.004605  -0.012356
   56  H  3  S    3.144551   1.722646   0.176166   0.157404  -2.679959
   57  H  3  X   -0.034430  -0.014786   0.520878  -0.037348  -0.076799
   58  H  3  Y    0.597662   0.624411   0.045320  -0.241587   0.714315
   59  H  3  Z    0.158184  -0.197645   0.060420   0.217324   0.240478
   60  H  4  S   -0.159174   0.216349  -0.011080   0.014169   0.017072
   61  H  4  S   -0.602726   3.604900  -0.085218  -0.780681   1.189640
   62  H  4  X   -0.000153   0.000318  -0.000696   0.000326  -0.000063
   63  H  4  Y    0.019842   0.001724   0.001140  -0.000024   0.015434
   64  H  4  Z    0.022219  -0.001612   0.002282   0.024492  -0.008892
   65  H  4  S   -2.008078   0.917436  -0.104758  -0.456932   0.905705
   66  H  4  X    0.015978  -0.005387  -0.731743   0.071010  -0.026736
   67  H  4  Y    0.134739   0.195172   0.005261  -0.338884   0.592354
   68  H  4  Z    0.221924   0.132521   0.049665   0.417259  -0.845327
   69  H  5  S    0.029611  -0.054613   0.012880   0.155928   0.047083
   70  H  5  S    1.539626   1.087921   0.264026   2.735817   1.921275
   71  H  5  X   -0.000248   0.000215   0.003164  -0.000248   0.000135
   72  H  5  Y   -0.015761   0.002040   0.000493   0.016371  -0.012602
   73  H  5  Z   -0.007802   0.016107  -0.002454  -0.017832  -0.017514
   74  H  5  S   -1.438738  -3.094335  -0.072522   0.015585   2.700584
   75  H  5  X   -0.026286   0.016918   0.832370  -0.065263   0.001525
   76  H  5  Y   -0.471180  -0.050503  -0.040474  -0.030643  -0.833579
   77  H  5  Z   -0.035614   0.606200  -0.035682  -0.525327  -0.863801

                     26         27         28         29         30
                    0.3082     0.3151     0.3553     0.3769     0.4045
                     A          A          A          A          A   
    1  C  1  S   -0.005234  -0.029917  -0.000054  -0.019645   0.040287
    2  C  1  S   -0.023108  -0.126456  -0.000907  -0.058777  -0.017034
    3  C  1  S    0.220758   1.414392  -0.009193   1.773382  -2.132785
    4  C  1  X   -0.056731   0.015070  -0.246695  -0.002022  -0.002412
    5  C  1  Y   -0.025044  -0.138160   0.001689   0.279903   0.054907
    6  C  1  Z   -0.045497  -0.248025   0.000161  -0.076103  -0.000224
    7  C  1  X   -0.343058   0.043788  -0.969272   0.008833  -0.018603
    8  C  1  Y    0.065728   0.211551   0.015529   3.093922   0.297627
    9  C  1  Z    0.461234   2.246931  -0.053819   1.725154  -1.809864
   10  C  1 XX   -0.004650  -0.026457  -0.000179  -0.013423   0.018413
   11  C  1 YY   -0.002945   0.001805   0.000419   0.006285   0.008373
   12  C  1 ZZ    0.007595   0.024652  -0.000239   0.007137  -0.026786
   13  C  1 XY   -0.034389   0.005329   0.011010  -0.000387  -0.000518
   14  C  1 XZ   -0.017902   0.003304  -0.029609  -0.000039  -0.000394
   15  C  1 YZ   -0.004342  -0.022917  -0.000709  -0.050516  -0.009967
   16  C  1  S    1.378545   5.108070   0.024414   0.096189  -6.279537
   17  C  1  X   -0.093393   0.040309  -1.113377   0.016652  -0.029910
   18  C  1  Y   -0.692207  -3.559288   0.009691   4.837505   1.582371
   19  C  1  Z    0.477704   1.453572   0.010164  -0.071880  -1.788347
   20  C  1 XX   -0.036669  -0.076005   0.009122  -0.074653   0.528925
   21  C  1 YY   -0.089500  -0.549124   0.010393  -0.335501   0.611210
   22  C  1 ZZ    0.126169   0.625130  -0.019515   0.410153  -1.140135
   23  C  1 XY    0.511356  -0.088621  -0.225935   0.005444   0.030628
   24  C  1 XZ   -0.002758  -0.021643   0.076765   0.011171   0.003251
   25  C  1 YZ    0.184313   1.041569   0.015545   0.320199   0.270600
   26  C  2  S    0.006319   0.026861  -0.000246   0.010329   0.032358
   27  C  2  S    0.025253   0.106659  -0.000580   0.028204  -0.012578
   28  C  2  S   -0.330398  -1.515930   0.033294  -0.554161  -0.272709
   29  C  2  X   -0.110677   0.023258   0.044102  -0.001044   0.002691
   30  C  2  Y    0.003815   0.034130  -0.003949   0.034708  -0.203486
   31  C  2  Z   -0.004649   0.020503   0.000686  -0.017854   0.034524
   32  C  2  X   -0.626136   0.119247   0.446071  -0.047109   0.067740
   33  C  2  Y   -0.109711  -0.495777  -0.041100   0.169900  -2.263106
   34  C  2  Z    0.555973   2.935281  -0.050797   2.013684  -2.953253
   35  C  2 XX    0.003913   0.028128   0.000457   0.007290   0.005564
   36  C  2 YY    0.011556   0.050488  -0.000547   0.011089  -0.021127
   37  C  2 ZZ   -0.015469  -0.078616   0.000089  -0.018380   0.015563
   38  C  2 XY    0.034769  -0.006754  -0.010176  -0.000038   0.001808
   39  C  2 XZ    0.024494  -0.003233   0.015237  -0.000121   0.000449
   40  C  2 YZ   -0.003421  -0.020828  -0.000548   0.006139  -0.007448
   41  C  2  S   -1.117274  -4.103661  -0.078510   0.611590   0.720322
   42  C  2  X   -0.473445   0.014544   0.535769  -0.027167   0.085047
   43  C  2  Y    0.522930   2.591651  -0.022288  -0.625392  -2.752002
   44  C  2  Z    0.819312   3.856545   0.017678   0.609115  -1.908963
   45  C  2 XX    0.073105   0.348675   0.004520   0.145793   0.899452
   46  C  2 YY    0.050227   0.373128  -0.016978   0.767902  -0.961620
   47  C  2 ZZ   -0.123332  -0.721803   0.012458  -0.913696   0.062167
   48  C  2 XY   -0.358492   0.060760  -0.180715  -0.014590   0.064637
   49  C  2 XZ   -0.168414  -0.002407   0.326936   0.000211   0.001943
   50  C  2 YZ    0.199173   1.134638   0.014504   0.727620   0.122567
   51  H  3  S   -0.008803  -0.019979   0.000458   0.053581  -0.034930
   52  H  3  S   -0.552322  -2.895119   0.094609  -3.270389   6.786952
   53  H  3  X    0.004866  -0.000502   0.000116   0.000018  -0.000005
   54  H  3  Y   -0.000205  -0.000627  -0.000058   0.000445   0.002016
   55  H  3  Z   -0.006660  -0.033954  -0.000029  -0.009630   0.008877
   56  H  3  S   -0.655055  -2.833771   0.001114  -0.568897   3.008579
   57  H  3  X    1.492300  -0.310345  -0.382039  -0.030853   0.085046
   58  H  3  Y    0.236379   1.013171  -0.020257   0.478524  -1.428253
   59  H  3  Z   -0.189534  -1.056708  -0.022317   0.741532  -0.886774
   60  H  4  S   -0.015590  -0.049993   0.001145   0.026391   0.039234
   61  H  4  S   -0.065099  -0.579868  -0.044627   4.298310   0.154314
   62  H  4  X    0.005062  -0.000435  -0.011962  -0.000004  -0.000544
   63  H  4  Y    0.000618  -0.001081   0.000088   0.005071   0.003887
   64  H  4  Z    0.000510   0.004136   0.000222   0.002918   0.000782
   65  H  4  S   -0.230659  -1.306702   0.001344   4.139572   0.206147
   66  H  4  X    1.266285  -0.232205   0.719860   0.024901   0.053540
   67  H  4  Y    0.076903   0.132044  -0.029830  -0.100960  -0.293463
   68  H  4  Z    0.122774   0.772176  -0.007891   1.548718  -0.435996
   69  H  5  S    0.003753   0.045264   0.001815   0.008308   0.021694
   70  H  5  S    0.547712   3.279679  -0.009352  -2.663404   0.525396
   71  H  5  X   -0.006359   0.001166  -0.010054  -0.000155   0.000176
   72  H  5  Y    0.000555   0.008314   0.000351   0.014477   0.000537
   73  H  5  Z   -0.006102  -0.032297  -0.000205  -0.018206   0.001648
   74  H  5  S    0.764245   3.595566   0.016246  -3.851456  -0.953562
   75  H  5  X   -0.459947   0.067040   1.620197  -0.012866  -0.029773
   76  H  5  Y   -0.112329  -0.535087  -0.002461  -0.402738  -0.218363
   77  H  5  Z    0.042840   0.408385  -0.014809  -0.911835  -0.195775

                     31         32         33         34         35
                    0.4381     0.4435     0.4482     0.4763     0.4833
                     A          A          A          A          A   
    1  C  1  S    0.064995   0.012050   0.002449   0.021909  -0.003780
    2  C  1  S    0.031058  -0.049731  -0.002743  -0.025451   0.029686
    3  C  1  S   -4.182331   0.852399   0.138619  -2.178640   0.365947
    4  C  1  X    0.002149  -0.051237   0.244620   0.015817   0.042593
    5  C  1  Y    0.026328  -0.062235  -0.004561  -0.134165  -0.051875
    6  C  1  Z    0.081113  -0.003540   0.017572  -0.010450   0.063112
    7  C  1  X    0.008479  -0.313846   1.788044   0.101860   0.275926
    8  C  1  Y   -0.620496   1.185907   0.573130  -3.578994   0.849824
    9  C  1  Z    5.913167   3.724263   0.714438  -0.764696   1.030611
   10  C  1 XX    0.017851  -0.008671  -0.000060  -0.012890   0.001361
   11  C  1 YY   -0.026588  -0.005058  -0.002051   0.012813  -0.003449
   12  C  1 ZZ    0.008736   0.013729   0.002110   0.000077   0.002087
   13  C  1 XY    0.000147  -0.001037   0.002015  -0.000243   0.004775
   14  C  1 XZ    0.000194   0.000678  -0.013797  -0.002316   0.030770
   15  C  1 YZ    0.020301   0.011880  -0.001551  -0.012496  -0.016252
   16  C  1  S   -6.819601  -3.867879  -1.378064   3.553915  -0.938212
   17  C  1  X   -0.005059  -0.174508   1.127888   0.064705  -0.167385
   18  C  1  Y   -0.597345   1.614972   0.462979  -0.769703   0.389599
   19  C  1  Z    1.106639   0.222397  -0.077545   0.785795  -0.025849
   20  C  1 XX    0.582195   0.254255   0.093789  -0.456397   0.036957
   21  C  1 YY   -1.948099  -0.764257  -0.131162   0.487384  -0.262017
   22  C  1 ZZ    1.365904   0.510002   0.037373  -0.030986   0.225060
   23  C  1 XY   -0.018995   0.040143  -0.258574  -0.029489   0.304413
   24  C  1 XZ   -0.008470   0.120043  -0.107418   0.063290  -1.400985
   25  C  1 YZ    0.616248  -2.600884  -0.449754  -0.146125  -0.477547
   26  C  2  S    0.062576   0.028590   0.001796   0.053813   0.009465
   27  C  2  S   -0.000015  -0.022701  -0.011714   0.013639  -0.023572
   28  C  2  S   -6.457649  -2.484486  -0.244905  -4.306413  -1.475126
   29  C  2  X    0.002713   0.026269  -0.252425  -0.018514   0.249709
   30  C  2  Y    0.127773   0.065104   0.008754  -0.136791  -0.004411
   31  C  2  Z    0.028692  -0.083676   0.003604  -0.176492   0.037451
   32  C  2  X    0.028567  -0.036725  -0.702979   0.000937   1.509994
   33  C  2  Y   -0.720367   3.174608   0.523389  -1.445375   0.080857
   34  C  2  Z    3.070598   2.768943   0.595532  -2.348187   0.928361
   35  C  2 XX    0.033237  -0.000608  -0.000739  -0.010826  -0.001417
   36  C  2 YY   -0.012772   0.026627   0.004756   0.016642   0.004778
   37  C  2 ZZ   -0.020464  -0.026020  -0.004017  -0.005816  -0.003361
   38  C  2 XY    0.001018  -0.001848   0.004196  -0.000689  -0.004379
   39  C  2 XZ    0.000498   0.001910  -0.015003  -0.002251  -0.001386
   40  C  2 YZ   -0.020760   0.053646   0.009949   0.013560   0.012578
   41  C  2  S   -0.748189   1.307436   0.867687  -4.646953   0.622476
   42  C  2  X    0.014624   0.136053  -1.170824  -0.062514   0.528848
   43  C  2  Y    0.507549   0.038686  -0.058493  -0.241424  -0.076229
   44  C  2  Z   -0.228248  -0.127427  -0.140064   0.141520  -0.078345
   45  C  2 XX    0.039817   0.222126   0.061883  -0.141245  -0.107692
   46  C  2 YY    0.508884   1.360465   0.145754   0.101728  -0.047288
   47  C  2 ZZ   -0.548700  -1.582591  -0.207637   0.039518   0.154979
   48  C  2 XY    0.012517  -0.012272  -0.663634  -0.040940   0.955972
   49  C  2 XZ    0.011067  -0.193770   1.034419   0.101184   0.263628
   50  C  2 YZ   -0.377254  -0.830348  -0.037251  -0.355976   0.257539
   51  H  3  S   -0.094131   0.182416   0.035245   0.130665   0.064238
   52  H  3  S    1.212347  -3.140359  -0.816070   6.419100  -0.082487
   53  H  3  X    0.000343   0.001048  -0.017108  -0.002066   0.021690
   54  H  3  Y   -0.018902   0.012933   0.000925   0.029331   0.003048
   55  H  3  Z   -0.020762   0.024879   0.005147   0.003550   0.010181
   56  H  3  S   -0.036438  -0.198454  -0.033437   0.888824   0.020874
   57  H  3  X   -0.011638  -0.032858   0.741968   0.145753  -1.364180
   58  H  3  Y   -0.416853  -0.196649   0.149288  -3.221658   0.003956
   59  H  3  Z   -0.096312   1.451015   0.183127  -0.985773  -0.598838
   60  H  4  S   -0.043634  -0.079850  -0.022884   0.014960  -0.086075
   61  H  4  S    6.155935   9.207438   2.160779  -5.674221   2.152022
   62  H  4  X    0.000042  -0.002446   0.016693   0.001320  -0.004711
   63  H  4  Y    0.007422  -0.017915  -0.002973   0.003874   0.002352
   64  H  4  Z   -0.005967  -0.012321   0.000450  -0.000528   0.014482
   65  H  4  S    1.412755   1.868601   0.455852  -0.869645   0.241195
   66  H  4  X   -0.009224   0.258755  -1.273297  -0.072753  -0.144843
   67  H  4  Y    1.115455   2.958169   0.634387  -1.571652   0.435958
   68  H  4  Z    1.834244   0.120769   0.069792  -1.204890   0.057370
   69  H  5  S   -0.178461   0.088518   0.017606   0.112014   0.032193
   70  H  5  S    9.082941  -2.527315  -0.778110   4.616715  -0.844884
   71  H  5  X    0.000242  -0.002831   0.007841   0.000069   0.012925
   72  H  5  Y   -0.006952  -0.005563  -0.001107   0.022640   0.003161
   73  H  5  Z    0.007256  -0.003872  -0.001912   0.002884  -0.004705
   74  H  5  S    1.540992  -0.528019  -0.210836   0.806739  -0.139385
   75  H  5  X    0.002584   0.145270  -0.423319   0.024247  -1.107804
   76  H  5  Y   -2.098287   1.470517   0.371229  -2.527545   0.230195
   77  H  5  Z    1.141253   0.974824   0.033661   1.421276  -0.039561

                     36         37         38         39         40
                    0.4875     0.4930     0.5051     0.5566     0.5628
                     A          A          A          A          A   
    1  C  1  S    0.010703   0.104317  -0.025430   0.077371   0.016311
    2  C  1  S   -0.103082  -0.004846  -0.028752   0.023678   0.002097
    3  C  1  S   -1.575459  -8.285910   4.331826  -8.291001  -1.581559
    4  C  1  X    0.026158  -0.002702   0.000891   0.000940  -0.072169
    5  C  1  Y    0.166566   0.006285  -0.109109  -0.060377  -0.006866
    6  C  1  Z   -0.237871   0.325469  -0.089812  -0.139330  -0.032557
    7  C  1  X    0.244599  -0.002741   0.098423   0.209228  -1.353970
    8  C  1  Y   -0.249057  -0.928328  -7.078155  -0.119179  -0.140722
    9  C  1  Z   -2.701392  -2.618378   1.419060  -1.541076  -0.761033
   10  C  1 XX   -0.010845   0.008576  -0.006361   0.027003   0.004683
   11  C  1 YY    0.012923   0.031577  -0.008823  -0.008036  -0.001114
   12  C  1 ZZ   -0.002078  -0.040153   0.015185  -0.018968  -0.003569
   13  C  1 XY    0.002001   0.000483   0.000445   0.000578  -0.002651
   14  C  1 XZ    0.007053   0.001308   0.001414  -0.010566   0.054689
   15  C  1 YZ    0.053290  -0.002309   0.013646  -0.027881  -0.003521
   16  C  1  S    4.669823  -5.050007  -4.812115 -14.410592  -3.260920
   17  C  1  X   -0.003848  -0.015226   0.006544   0.026362  -0.225779
   18  C  1  Y   -0.083650  -0.572122  -1.874548   0.895594   0.205947
   19  C  1  Z    0.405475  -0.193801  -0.985930  -4.755789  -1.080278
   20  C  1 XX   -0.323407   0.303100   0.558480  -0.055479   0.063108
   21  C  1 YY    0.469024   2.649000  -0.673632  -1.801006  -0.224318
   22  C  1 ZZ   -0.145618  -2.952100   0.115152   1.856486   0.161210
   23  C  1 XY    0.078948   0.025984   0.079595   0.239197  -1.597109
   24  C  1 XZ   -0.384168  -0.064778  -0.110582   0.359246  -2.132178
   25  C  1 YZ    0.720696   0.382563   0.273016   0.209850   0.071298
   26  C  2  S   -0.002809  -0.087810  -0.030764  -0.050234  -0.012709
   27  C  2  S    0.091548  -0.081874  -0.008673   0.132623   0.023198
   28  C  2  S    1.915582  10.067421   2.752590   2.839032   0.988966
   29  C  2  X    0.049420   0.007605   0.002912  -0.067312   0.311104
   30  C  2  Y    0.070029  -0.020057  -0.017122   0.001560  -0.000003
   31  C  2  Z   -0.194855   0.176154  -0.003268  -0.077689  -0.021018
   32  C  2  X    0.376957   0.018233   0.023542  -0.249940   1.404953
   33  C  2  Y   -0.619937   1.093341   3.267877   0.588918   0.022940
   34  C  2  Z   -2.977080  -3.031907   2.559725  -1.412756  -0.692252
   35  C  2 XX    0.012049  -0.049478   0.003236   0.010554   0.000894
   36  C  2 YY   -0.013461   0.004443   0.006659  -0.027114  -0.004947
   37  C  2 ZZ    0.001412   0.045035  -0.009894   0.016560   0.004053
   38  C  2 XY    0.001547  -0.000888  -0.000614   0.006070  -0.026897
   39  C  2 XZ   -0.001309  -0.000369  -0.001272  -0.003892   0.032862
   40  C  2 YZ   -0.030638   0.006810   0.009499  -0.014231  -0.001792
   41  C  2  S   -4.530684   5.281381   5.808237  15.370811   3.484040
   42  C  2  X    0.113074   0.009700  -0.010025  -0.043346   0.387913
   43  C  2  Y   -0.259990   0.455621   0.957306  -1.155857  -0.261912
   44  C  2  Z    0.393282  -0.711128  -0.715532  -3.727443  -0.900416
   45  C  2 XX    0.233160  -0.332890  -0.025397  -0.367819  -0.089583
   46  C  2 YY    0.297402  -0.524954   1.481839  -0.930492  -0.182153
   47  C  2 ZZ   -0.530562   0.857845  -1.456442   1.298311   0.271736
   48  C  2 XY    0.230496   0.027400   0.042672   0.014353  -0.054080
   49  C  2 XZ    0.209858  -0.008029   0.090112   0.280042  -1.878867
   50  C  2 YZ   -0.928241   0.224582  -0.342736   1.039712   0.167578
   51  H  3  S   -0.176241  -0.027981   0.044866  -0.152418  -0.021213
   52  H  3  S    2.651540  -3.868140  -7.339774  -2.983264  -0.368777
   53  H  3  X    0.005626   0.001280   0.001296  -0.000545   0.001633
[...]
 II,JST,KST,LST =  2  1  1  1 NREC =         1 INTLOC =    1
 II,JST,KST,LST =  3  1  1  1 NREC =         1 INTLOC =    1
 II,JST,KST,LST =  4  1  1  1 NREC =         1 INTLOC =    1
 II,JST,KST,LST =  5  1  1  1 NREC =         1 INTLOC =    1
 II,JST,KST,LST =  6  1  1  1 NREC =         1 INTLOC =    1
 II,JST,KST,LST =  7  1  1  1 NREC =         1 INTLOC =    4
 II,JST,KST,LST =  8  1  1  1 NREC =         1 INTLOC =   49
 II,JST,KST,LST =  9  1  1  1 NREC =         1 INTLOC =   49
 II,JST,KST,LST = 10  1  1  1 NREC =         1 INTLOC =   67
 II,JST,KST,LST = 11  1  1  1 NREC =         1 INTLOC =  486
 II,JST,KST,LST = 12  1  1  1 NREC =         1 INTLOC =  486
 II,JST,KST,LST = 13  1  1  1 NREC =         1 INTLOC =  635
 II,JST,KST,LST = 14  1  1  1 NREC =         1 INTLOC = 1484
 II,JST,KST,LST = 15  1  1  1 NREC =         1 INTLOC = 1484
 II,JST,KST,LST = 16  1  1  1 NREC =         1 INTLOC = 8889
 II,JST,KST,LST = 17  1  1  1 NREC =         1 INTLOC = 8889
 II,JST,KST,LST = 18  1  1  1 NREC =         1 INTLOC = 8889
 II,JST,KST,LST = 19  1  1  1 NREC =         1 INTLOC =12972
 II,JST,KST,LST = 20  1  1  1 NREC =         3 INTLOC = 3162
 II,JST,KST,LST = 21  1  1  1 NREC =         3 INTLOC = 3162
 II,JST,KST,LST = 22  1  1  1 NREC =         3 INTLOC = 3162
 II,JST,KST,LST = 23  1  1  1 NREC =         3 INTLOC = 8788
 II,JST,KST,LST = 24  1  1  1 NREC =         3 INTLOC =12028
 II,JST,KST,LST = 25  1  1  1 NREC =         5 INTLOC = 6836
 II,JST,KST,LST = 26  1  1  1 NREC =         5 INTLOC = 6836
 II,JST,KST,LST = 27  1  1  1 NREC =         6 INTLOC =10866
 II,JST,KST,LST = 28  1  1  1 NREC =         6 INTLOC =10866
 II,JST,KST,LST = 29  1  1  1 NREC =         8 INTLOC =11339
 II,JST,KST,LST = 30  1  1  1 NREC =         9 INTLOC =  369
 II,JST,KST,LST = 31  1  1  1 NREC =        10 INTLOC = 7206
 II,JST,KST,LST = 32  1  1  1 NREC =        12 INTLOC = 3619
 II,JST,KST,LST = 33  1  1  1 NREC =        13 INTLOC = 8676
 II,JST,KST,LST = 34  1  1  1 NREC =        17 INTLOC = 7155
 II,JST,KST,LST = 35  1  1  1 NREC =        18 INTLOC =11592
 II,JST,KST,LST = 36  1  1  1 NREC =        19 INTLOC = 2885
 II,JST,KST,LST = 37  1  1  1 NREC =        20 INTLOC = 7812
 II,JST,KST,LST = 38  1  1  1 NREC =        21 INTLOC =14606
 II,JST,KST,LST = 39  1  1  1 NREC =        26 INTLOC =11421
 II,JST,KST,LST = 40  1  1  1 NREC =        36 INTLOC = 9521
 II,JST,KST,LST = 41  1  1  1 NREC =        37 INTLOC = 2155
 II,JST,KST,LST = 42  1  1  1 NREC =        39 INTLOC = 8835
 II,JST,KST,LST = 43  1  1  1 NREC =        58 INTLOC = 1679
 II,JST,KST,LST = 44  1  1  1 NREC =        58 INTLOC = 1679
 II,JST,KST,LST = 45  1  1  1 NREC =        60 INTLOC = 3330
 II,JST,KST,LST = 46  1  1  1 NREC =        60 INTLOC =12191
 II,JST,KST,LST = 47  1  1  1 NREC =        80 INTLOC =12423
 II,JST,KST,LST = 48  1  1  1 NREC =        80 INTLOC =12423
 II,JST,KST,LST = 49  1  1  1 NREC =       105 INTLOC =14029
 II,JST,KST,LST = 50  1  1  1 NREC =       105 INTLOC =14029
 II,JST,KST,LST = 51  1  1  1 NREC =       131 INTLOC = 8168
 II,JST,KST,LST = 52  1  1  1 NREC =       131 INTLOC = 8168
 II,JST,KST,LST = 53  1  1  1 NREC =       140 INTLOC = 7582
 II,JST,KST,LST = 54  1  1  1 NREC =       145 INTLOC = 2038
 II,JST,KST,LST = 55  1  1  1 NREC =       155 INTLOC =13737
 II,JST,KST,LST = 56  1  1  1 NREC =       157 INTLOC = 9205
 II,JST,KST,LST = 57  1  1  1 NREC =       190 INTLOC = 8019
 II,JST,KST,LST = 58  1  1  1 NREC =       190 INTLOC = 8019
 II,JST,KST,LST = 59  1  1  1 NREC =       191 INTLOC = 7889
 II,JST,KST,LST = 60  1  1  1 NREC =       210 INTLOC =12201
 II,JST,KST,LST = 61  1  1  1 NREC =       220 INTLOC = 1192
 II,JST,KST,LST = 62  1  1  1 NREC =       244 INTLOC = 7539
 II,JST,KST,LST = 63  1  1  1 NREC =       249 INTLOC = 4993
 II,JST,KST,LST = 64  1  1  1 NREC =       253 INTLOC = 4789
 II,JST,KST,LST = 65  1  1  1 NREC =       269 INTLOC = 8916
 II,JST,KST,LST = 66  1  1  1 NREC =       279 INTLOC =13965
 SCHWARZ INEQUALITY TEST SKIPPED       35089 INTEGRAL BLOCKS.
 TOTAL NUMBER OF NONZERO TWO-ELECTRON INTEGRALS =            67079637
       4480 INTEGRAL RECORDS WERE STORED ON DISK FILE  8.
  ...... END OF TWO-ELECTRON INTEGRALS .....
 CPU     0: STEP CPU TIME=     0.27 TOTAL CPU TIME=         22.8 (      0.4 MIN)
 TOTAL WALL CLOCK TIME=         23.3 SECONDS, CPU UTILIZATION IS    97.93%

          ---------------------------------------------
          MONOMER ELECTROSTATIC INTERACTION (OWN BASIS)
          ---------------------------------------------

          -------------
          GUESS OPTIONS
          -------------
          GUESS =MOSAVED           NORB  =       0          NORDER=       0
          MIX   =       F          PRTMO =       F          PUNMO =       F
          TOLZ  = 1.0E-08          TOLE  = 1.0E-05
          SYMDEN=       F          PURIFY=       F

 INITIAL GUESS ORBITALS GENERATED BY MOSAVED  ROUTINE.

 STATISTICS FOR GENERATION OF SYMMETRY ORBITAL -Q- MATRIX
 NUMBER OF CARTESIAN ATOMIC ORBITALS=        154
 NUMBER OF SPHERICAL CONTAMINANTS DROPPED=     8
 NUMBER OF LINEARLY DEPENDENT MOS DROPPED=     0
 TOTAL NUMBER OF MOS IN VARIATION SPACE=     146
 ...... END OF INITIAL ORBITAL SELECTION ......
 CPU     0: STEP CPU TIME=     0.01 TOTAL CPU TIME=         22.8 (      0.4 MIN)
 TOTAL WALL CLOCK TIME=         23.3 SECONDS, CPU UTILIZATION IS    97.93%

          ---------------------------
                  UHF SCF CALCULATION
          ---------------------------

 FINAL UHF ENERGY IS     -155.3023451314 AFTER   1 ITERATIONS
 ...... END OF UHF CALCULATION ......
 CPU     0: STEP CPU TIME=     0.08 TOTAL CPU TIME=         22.9 (      0.4 MIN)
 TOTAL WALL CLOCK TIME=         23.4 SECONDS, CPU UTILIZATION IS    97.92%

          -------------
          GUESS OPTIONS
          -------------
          GUESS =MOSAVED           NORB  =       0          NORDER=       0
          MIX   =       F          PRTMO =       F          PUNMO =       F
          TOLZ  = 1.0E-08          TOLE  = 1.0E-05
          SYMDEN=       F          PURIFY=       F

 INITIAL GUESS ORBITALS GENERATED BY MOSAVED  ROUTINE.

 STATISTICS FOR GENERATION OF SYMMETRY ORBITAL -Q- MATRIX
 NUMBER OF CARTESIAN ATOMIC ORBITALS=        154
 NUMBER OF SPHERICAL CONTAMINANTS DROPPED=     8
 NUMBER OF LINEARLY DEPENDENT MOS DROPPED=     0
 TOTAL NUMBER OF MOS IN VARIATION SPACE=     146
 ...... END OF INITIAL ORBITAL SELECTION ......
 CPU     0: STEP CPU TIME=     0.00 TOTAL CPU TIME=         22.9 (      0.4 MIN)
 TOTAL WALL CLOCK TIME=         23.4 SECONDS, CPU UTILIZATION IS    97.92%

          ---------------------------
                  UHF SCF CALCULATION
          ---------------------------

 DIRECT SCF CALCULATION, SCHWRZ=T   FDIFF=T
 SCHWARZ INEQUALITY OVERHEAD:     11935 INTEGRALS, T=        0.00

 FINAL UHF ENERGY IS     -332.0099706834 AFTER   1 ITERATIONS
 ...... END OF UHF CALCULATION ......
 CPU     0: STEP CPU TIME=     0.27 TOTAL CPU TIME=         23.2 (      0.4 MIN)
 TOTAL WALL CLOCK TIME=         23.7 SECONDS, CPU UTILIZATION IS    97.88%

 XEDA STEP ENERGY SUMMATION
 ETOT =       -155.30234513     ENUC =        103.26227640
 EEXCH=        -22.94728330

          --------------------------------------------------
          MONOMER EXCHANGE-REPULSION INTERACTION (OWN BASIS)
          --------------------------------------------------

          -------------
          GUESS OPTIONS
          -------------
          GUESS =MOSAVED           NORB  =       0          NORDER=       0
          MIX   =       F          PRTMO =       F          PUNMO =       F
          TOLZ  = 1.0E-08          TOLE  = 1.0E-05
          SYMDEN=       F          PURIFY=       F

 INITIAL GUESS ORBITALS GENERATED BY MOSAVED  ROUTINE.

 STATISTICS FOR GENERATION OF SYMMETRY ORBITAL -Q- MATRIX
 NUMBER OF CARTESIAN ATOMIC ORBITALS=        154
 NUMBER OF SPHERICAL CONTAMINANTS DROPPED=     8
 NUMBER OF LINEARLY DEPENDENT MOS DROPPED=     0
 TOTAL NUMBER OF MOS IN VARIATION SPACE=     146
 ...... END OF INITIAL ORBITAL SELECTION ......
 CPU     0: STEP CPU TIME=     0.01 TOTAL CPU TIME=         23.2 (      0.4 MIN)
 TOTAL WALL CLOCK TIME=         23.7 SECONDS, CPU UTILIZATION IS    97.88%

          ---------------------------
                  UHF SCF CALCULATION
          ---------------------------

 FINAL UHF ENERGY IS     -154.6272493854 AFTER   1 ITERATIONS
 ...... END OF UHF CALCULATION ......
 CPU     0: STEP CPU TIME=     0.08 TOTAL CPU TIME=         23.3 (      0.4 MIN)
 TOTAL WALL CLOCK TIME=         23.8 SECONDS, CPU UTILIZATION IS    97.88%

 XEDA STEP ENERGY SUMMATION
 ETOT =       -154.62724939     ENUC =        103.26227640

          ---------------------------------------------
          MONOMER ELECTROSTATIC INTERACTION (ALL BASIS)
          ---------------------------------------------

          -------------
          GUESS OPTIONS
          -------------
          GUESS =MOSAVED           NORB  =       0          NORDER=       0
          MIX   =       F          PRTMO =       F          PUNMO =       F
          TOLZ  = 1.0E-08          TOLE  = 1.0E-05
          SYMDEN=       F          PURIFY=       F

 INITIAL GUESS ORBITALS GENERATED BY MOSAVED  ROUTINE.

 STATISTICS FOR GENERATION OF SYMMETRY ORBITAL -Q- MATRIX
 NUMBER OF CARTESIAN ATOMIC ORBITALS=        154
 NUMBER OF SPHERICAL CONTAMINANTS DROPPED=     8
 NUMBER OF LINEARLY DEPENDENT MOS DROPPED=     0
 TOTAL NUMBER OF MOS IN VARIATION SPACE=     146
 ...... END OF INITIAL ORBITAL SELECTION ......
 CPU     0: STEP CPU TIME=     0.01 TOTAL CPU TIME=         23.3 (      0.4 MIN)
 TOTAL WALL CLOCK TIME=         23.8 SECONDS, CPU UTILIZATION IS    97.88%

          ---------------------------
                  UHF SCF CALCULATION
          ---------------------------

 FINAL UHF ENERGY IS     -155.3091234692 AFTER   1 ITERATIONS
 ...... END OF UHF CALCULATION ......
 CPU     0: STEP CPU TIME=     0.08 TOTAL CPU TIME=         23.3 (      0.4 MIN)
 TOTAL WALL CLOCK TIME=         23.8 SECONDS, CPU UTILIZATION IS    97.86%

          -------------
          GUESS OPTIONS
          -------------
          GUESS =MOSAVED           NORB  =       0          NORDER=       0
          MIX   =       F          PRTMO =       F          PUNMO =       F
          TOLZ  = 1.0E-08          TOLE  = 1.0E-05
          SYMDEN=       F          PURIFY=       F

 INITIAL GUESS ORBITALS GENERATED BY MOSAVED  ROUTINE.

 STATISTICS FOR GENERATION OF SYMMETRY ORBITAL -Q- MATRIX
 NUMBER OF CARTESIAN ATOMIC ORBITALS=        154
 NUMBER OF SPHERICAL CONTAMINANTS DROPPED=     8
 NUMBER OF LINEARLY DEPENDENT MOS DROPPED=     0
 TOTAL NUMBER OF MOS IN VARIATION SPACE=     146
 ...... END OF INITIAL ORBITAL SELECTION ......
 CPU     0: STEP CPU TIME=     0.01 TOTAL CPU TIME=         23.3 (      0.4 MIN)
 TOTAL WALL CLOCK TIME=         23.9 SECONDS, CPU UTILIZATION IS    97.86%

          ---------------------------
                  UHF SCF CALCULATION
          ---------------------------

 DIRECT SCF CALCULATION, SCHWRZ=T   FDIFF=T
 SCHWARZ INEQUALITY OVERHEAD:     11935 INTEGRALS, T=        0.00

 FINAL UHF ENERGY IS     -332.0326368331 AFTER   1 ITERATIONS
 ...... END OF UHF CALCULATION ......
 CPU     0: STEP CPU TIME=     0.27 TOTAL CPU TIME=         23.6 (      0.4 MIN)
 TOTAL WALL CLOCK TIME=         24.1 SECONDS, CPU UTILIZATION IS    97.82%

 XEDA STEP ENERGY SUMMATION
 ETOT =       -155.30912347     ENUC =        103.26227640
 EEXCH=        -22.94799275

          --------------------------------------------------
          MONOMER EXCHANGE-REPULSION INTERACTION (ALL BASIS)
          --------------------------------------------------

          -------------
          GUESS OPTIONS
          -------------
          GUESS =MOSAVED           NORB  =       0          NORDER=       0
          MIX   =       F          PRTMO =       F          PUNMO =       F
          TOLZ  = 1.0E-08          TOLE  = 1.0E-05
          SYMDEN=       F          PURIFY=       F

 INITIAL GUESS ORBITALS GENERATED BY MOSAVED  ROUTINE.

 STATISTICS FOR GENERATION OF SYMMETRY ORBITAL -Q- MATRIX
 NUMBER OF CARTESIAN ATOMIC ORBITALS=        154
 NUMBER OF SPHERICAL CONTAMINANTS DROPPED=     8
 NUMBER OF LINEARLY DEPENDENT MOS DROPPED=     0
 TOTAL NUMBER OF MOS IN VARIATION SPACE=     146
 ...... END OF INITIAL ORBITAL SELECTION ......
 CPU     0: STEP CPU TIME=     0.01 TOTAL CPU TIME=         23.6 (      0.4 MIN)
 TOTAL WALL CLOCK TIME=         24.2 SECONDS, CPU UTILIZATION IS    97.82%

          ---------------------------
                  UHF SCF CALCULATION
          ---------------------------

 FINAL UHF ENERGY IS     -154.6320958432 AFTER   1 ITERATIONS
 ...... END OF UHF CALCULATION ......
 CPU     0: STEP CPU TIME=     0.08 TOTAL CPU TIME=         23.7 (      0.4 MIN)
 TOTAL WALL CLOCK TIME=         24.2 SECONDS, CPU UTILIZATION IS    97.83%

 XEDA STEP ENERGY SUMMATION
 ETOT =       -154.63209584     ENUC =        103.26227640

          --------------------------------
          RESULTS OF INTERACTION ANALYSIS
          --------------------------------

     ENERGY TERMS
     T   ELECTRON KINETIC AND COULOMB POTENTIAL
     X   E-E EXCHANGE COMBINE WITH DIAGNANAL VALUE
     N   NUCLEUS-NUCLEUS REPULSION ENERGY

 --------------
 MONOMER ENERGY
 --------------

 MONOMER    1

                   OWN BASIS           ALL BASIS

 T              -93.94521348        -93.94554357
 X              -11.31341480        -11.31365091
 N               27.88102125         27.88102125
 EC              -0.47434103         -0.47482795
 E              -77.85194806        -77.85300118

 MONOMER    2

                   OWN BASIS           ALL BASIS

 T              -93.94518633        -93.94552033
 X              -11.31342231        -11.31365046
 N               27.88100002         27.88100002
 EC              -0.47433202         -0.47484258
 E              -77.85194064        -77.85301334

 ------------------------------------------------------------
 SUPER MOLECULE ENERGY  USING NON-ANTISYMMETRIC WAVEFUNCTION
 (ELECTROSTATIC ENERGY: T N CHANGE)
 ------------------------------------------------------------

              FROM OWN BASIS      FROM ALL BASIS
 T             -235.61733823       -235.62340712
 X              -22.62683711        -22.62730137
 N              103.26227640        103.26227640
 E             -154.98189895       -154.98843209

 ----------------------------------------------------------------------
 SUPER MOLECULE ENERGY  USING ANTISYMMETRIC NONORTHONORMAL WAVEFUNCTION
 (EXCHANGE ENERGY: ONLY X CHANGES)
 ----------------------------------------------------------------------

              FROM OWN BASIS      FROM ALL BASIS
 T             -235.61733823       -235.62340712
 X              -22.94728330        -22.94799275
 N              103.26227640        103.26227640
 E             -155.30234513       -155.30912347

 -----------------------------------------------------------------------
 SUPER MOLECULE ENERGY  USING ANTISYMMETRIC AND ORTHONORMAL WAVEFUNCTION
 (REPULSION ENERGY: T X CHANGE)
 -----------------------------------------------------------------------

              FROM OWN BASIS      FROM ALL BASIS
 T+X           -257.88952578       -257.89437224
 N              103.26227640        103.26227640
 E             -154.62724939       -154.63209584

 ---------------------------------------------
 SUPER MOLECULE ENERGY  USING SCF WAVEFUNCTION
 (POLARIZATION ENERGY: T X CHANGE)
 ---------------------------------------------
 T+X           -258.17172207
 N              103.26227640
 EC              -0.98520859
 E             -155.89465426


                   *******************************
                   SUMMARY OF INTERACTION ENERGIES
                     XEDA IN XIAMEN UNIVERSITY    
                    - ZHEN TANG AND PEIFENG SU -  
                   *******************************


 -------------
 OWN BASIS SET                                       HARTREE          KCAL/MOL
 -------------
 ELECTROSTATIC ENERGY                  ES=         -0.226683           -142.25
 EXCHANGE ENERGY                       EX=         -0.320446           -201.08
 REPULSION ENERGY                     REP=          0.675096            423.63
 POLARIZATION ENERGY                  POL=         -0.282196           -177.08
 ELECTRON CORRELATION                CORR=         -0.036536            -22.93
 TOTAL INTERACTION ENERGY               E=         -0.190766           -119.71
  

 -------------
 ALL BASIS SET                                       HARTREE          KCAL/MOL
 -------------
 ELECTROSTATIC ENERGY                  ES=         -0.232088           -145.64
 EXCHANGE ENERGY                       EX=         -0.320691           -201.24
 REPULSION ENERGY                     REP=          0.677028            424.84
 POLARIZATION ENERGY                  POL=         -0.277350           -174.04
 ELECTRON CORRELATION                CORR=         -0.035538            -22.30
 TOTAL INTERACTION ENERGY               E=         -0.188640           -118.37
  

                     ***************************
                     END OF INTERACTION ANALYSIS
                     ***************************

              1301896  WORDS OF DYNAMIC MEMORY USED
 EXECUTION OF GAMESS TERMINATED NORMALLY 14:31:20 25-DEC-2023    
 DDI: 263640 bytes (0.3 MB / 0 MWords) used by master data server.

 ----------------------------------------
 CPU timing information for all processes
 ========================================
 0: 23.60 + 0.688 = 23.748
 1: 22.889 + 0.549 = 23.438
 2: 22.898 + 0.590 = 23.488
 3: 22.893 + 0.553 = 23.446
 4: 22.924 + 0.628 = 23.553
 5: 22.856 + 0.639 = 23.495
 6: 22.843 + 0.643 = 23.486
 7: 22.859 + 0.588 = 23.448
 8: 22.776 + 0.638 = 23.414
 9: 22.767 + 0.548 = 23.315
 10: 22.849 + 0.578 = 23.427
 11: 22.840 + 0.567 = 23.407
 12: 22.887 + 0.659 = 23.547
 13: 22.837 + 0.554 = 23.392
 14: 22.757 + 0.605 = 23.362
 15: 22.834 + 0.517 = 23.351
 ----------------------------------------
 ddikick.x: exited gracefully.
----- accounting info -----
Files used on the master node w014 were:
-rw-r--r-- 1 xacs0647 10000  2703863 Dec 25 14:31 /job_dir/14_1685737/14.dat
-rw-r--r-- 1 xacs0647 10000      243 Dec 25 14:31 /job_dir/14_1685737/14.err
-rw-r--r-- 1 xacs0647 10000      837 Dec 25 14:30 /job_dir/14_1685737/14.F05
-rw-r--r-- 1 xacs0647 10000 54184816 Dec 25 14:31 /job_dir/14_1685737/14.F08
-rw-r--r-- 1 xacs0647 10000 51304560 Dec 25 14:31 /job_dir/14_1685737/14.F08.001
-rw-r--r-- 1 xacs0647 10000 53284736 Dec 25 14:31 /job_dir/14_1685737/14.F08.002
-rw-r--r-- 1 xacs0647 10000 54184816 Dec 25 14:31 /job_dir/14_1685737/14.F08.003
-rw-r--r-- 1 xacs0647 10000 50584496 Dec 25 14:31 /job_dir/14_1685737/14.F08.004
-rw-r--r-- 1 xacs0647 10000 51664592 Dec 25 14:31 /job_dir/14_1685737/14.F08.005
-rw-r--r-- 1 xacs0647 10000 52744688 Dec 25 14:31 /job_dir/14_1685737/14.F08.006
-rw-r--r-- 1 xacs0647 10000 49504400 Dec 25 14:31 /job_dir/14_1685737/14.F08.007
-rw-r--r-- 1 xacs0647 10000 42843808 Dec 25 14:31 /job_dir/14_1685737/14.F08.008
-rw-r--r-- 1 xacs0647 10000 49504400 Dec 25 14:31 /job_dir/14_1685737/14.F08.009
-rw-r--r-- 1 xacs0647 10000 47524224 Dec 25 14:31 /job_dir/14_1685737/14.F08.010
-rw-r--r-- 1 xacs0647 10000 50944528 Dec 25 14:31 /job_dir/14_1685737/14.F08.011
-rw-r--r-- 1 xacs0647 10000 53824784 Dec 25 14:31 /job_dir/14_1685737/14.F08.012
-rw-r--r-- 1 xacs0647 10000 46984176 Dec 25 14:31 /job_dir/14_1685737/14.F08.013
-rw-r--r-- 1 xacs0647 10000 51304560 Dec 25 14:31 /job_dir/14_1685737/14.F08.014
-rw-r--r-- 1 xacs0647 10000 46084096 Dec 25 14:31 /job_dir/14_1685737/14.F08.015
-rw-r--r-- 1 xacs0647 10000  5758720 Dec 25 14:31 /job_dir/14_1685737/14.F10
-rw-r--r-- 1 xacs0647 10000      837 Dec 25 14:30 /job_dir/14_1685737/14.inp
-rw-r--r-- 1 xacs0647 10000  2403321 Dec 25 14:31 /job_dir/14_1685737/14.out
Mon Dec 25 14:31:23 CST 2023
0.096u 0.063s 0:27.49 0.5%	0+0k 184+40io 1pf+0w
