----- GAMESS execution script 'rungms' -----
This job is running on host w014
under operating system Linux at Mon Dec 25 14:30:56 CST 2023
Available scratch disk space (Kbyte units) at beginning of the job is
Filesystem              1K-blocks    Used Available Use% Mounted on
/dev/mapper/system-root 932514944 2733012 929781932   1% /
GAMESS temporary binary files will be written to /job_dir/15_1685738
GAMESS supplementary output files will be written to /job_dir/15_1685738
Copying input file ./15.inp to your run's scratch directory...
 
Assuming a single but multicore node.
 

 Distributed Data Interface kickoff program.
 Initiating 16 compute processes on 1 nodes to run the following command:
 /share/apps/xeda-apps/xeda-td/gamess.00.x 15 

          *******************************************************
          *                                                     *
          *          GAMESS VERSION = 30 SEP 2020 (R2)          *
          *                                                     *
          *              doi.org/10.1063/5.0005188              *
          *                                                     *
          **************** 64 BIT LINUX VERSION *****************

  GAMESS HAS BEEN MADE POSSIBLE WITH IMPORTANT CONTRIBUTIONS FROM
  THE FOLLOWING INDIVIDUALS (IN ALPHABETICAL ORDER):

     IVANA ADAMOVIC, CHRISTINE AIKENS, TOMOKO AKAMA,
     YURI ALEXEEV, YURIKO AOKI, POOJA ARORA, TOSHIO ASADA,
     ANDREY ASADCHEV, KIM K. BALDRIDGE, PRADIPTA BANDYOPADHYAY,
     MARIA BARYSZ, ROB BELL, JONATHAN BENTZ, COLLEEN BERTONI,
     JERRY A. BOATZ, BRETT BODE, KURT BRORSEN, KURT R. BRORSEN,
     LAIMUTIS BYTAUTAS, CALEB CARLIN, LAURA CARRINGTON,
     GALINA CHABAN, BENOIT CHAMPAGNE, WEI CHEN, MAHITO CHIBA,
     DAN CHIPMAN, CHEOL HO CHOI, TANNER CULPITT,
     DIPAYAN DATTA, PAUL DAY, ALBERT DEFUSCO,
     NUWAN DESILVA, J. EMILIANO DEUSTUA,
     TIM DUDLEY, MICHEL DUPUIS, STEVEN T. ELBERT,
     DMITRI FEDOROV, ALEX FINDLATER, GRAHAM FLETCHER,
     MARK FREITAG, CHRISTIAN FRIEDL, DAVID GARMER,
     IGOR S. GERASIMOV, KURT GLAESEMANN, MARK S. GORDON,
     JEFFREY GOUR, FENG LONG GU, EMILIE B. GUIDEZ,
     ANASTASIA GUNINA, SHARON HAMMES-SCHIFFER, MASATAKE HARUTA,
     KIMIHIKO HIRAO, YASUHIRO IKABATA, TZVETELIN IORDANOV,
     STEPHAN IRLE, KAZUYA ISHIMURA, JOE IVANIC, FRANK JENSEN,
     JAN H. JENSEN, VISVALDAS KAIRYS, MUNEAKI KAMIYA,
     MICHIO KATOUDA, NAOAKI KAWAKAMI, DAN KEMP, BERNARD KIRTMAN,
     KAZUO KITAURA, MARIUSZ KLOBUKOWSKI, MASATO KOBAYASHI,
     PRAKASHAN KORAMBATH, JACEK KORCHOWIEC, SHIRO KOSEKI,
     KAROL KOWALSKI, JIMMY KROMANN, STANISLAW KUCHARSKI,
     HENRY KURTZ, SAROM SOK LEANG, HUI LI, SHUHUA LI, WEI LI,
     JESSE LUTZ, ALEKSANDR O. LYKHIN, MARCIN MAKOWSKI,
     JOANI MATO, NIKITA MATSUNAGA, BENEDETTA MENNUCCI,
     GRANT MERRILL, NORIYUKI MINEZAWA, VLADIMIR MIRONOV,
     EISAKU MIYOSHI, JOHN A. MONTGOMERY JR., HIROTOSHI MORI,
     JONATHAN MULLIN, MONIKA MUSIAL, SHIGERU NAGASE,
     TAKESHI NAGATA, HIROMI NAKAI, TAKAHITO NAKAJIMA,
     YUYA NAKAJIMA, HARUYUKI NAKANO, HIROYA NAKATA, SEAN NEDD,
     HEATHER NETZLOFF, KIET A. NGUYEN, YOSHIO NISHIMOTO,
     BOSILJKA NJEGIC, RYAN OLSON, MIKE PAK, ROBERTO PEVERATI,
     BUU PHAM, PIOTR PIECUCH, ANNA POMOGAEVA, DAVID POOLE,
     SPENCER PRUITT, OLIVIER QUINET, LUKE ROSKOP,
     KLAUS RUEDENBERG, ANDREW SAND, TOSAPORN SATTASATHUCHANA,
     NOZOMI SAWADA, MICHAEL W. SCHMIDT, PATRICK E. SCHNEIDER,
     JUNJI SEINO, PRACHI SHARMA, JUN SHEN, JIM SHOEMAKER,
     YINAN SHU, DEJUN SI, JONATHAN SKONE, LYUDMILA SLIPCHENKO,
     TONY SMITH, JIE SONG, MARK SPACKMAN, CASPER STEINMANN,
     WALT STEVENS, PEIFENG SU, SHUJUN SU, CHET SWALINA,
     TETSUYA TAKETSUGU, ZHEN TAO, NANDUN THELLAMUREGE
     SEIKEN TOKURA, JACOPO TOMASI, TSUGUKI TOUMA, TAKAO TSUNEDA,
     HIROAKI UMEDA, JORGE LUIS GALVEZ VALLEJO, YALI WANG,
     SIMON WEBB, AARON WEST, THERESA L. WINDUS, MARTA WLOCH,
     PENG XU, KIYOSHI YAGI, SUSUMU YANAGISAWA, YANG YANG,
     SOOHAENG YOO, TAKESHI YOSHIKAWA, FEDERICO ZAHARIEV,
     TOBY ZENG

  WHO ARE SUPPORTED BY THEIR INSTITUTION/UNIVERSITY/COMPANY/GROUP
  (IN ALPHABETICAL ORDER):

     EP ANALYTICS, FACULTES UNIVERSITAIRES NOTRE-DAME DE LA PAIX,
     INSTITUTE FOR MOLECULAR SCIENCE, IOWA STATE UNIVERSITY,
     JACKSON STATE UNIVERSITY, JOHANNES KEPLER UNIVERSITY LINZ,
     KYUSHU UNIVERSITY, MICHIGAN STATE UNIVERSITY,
     MIE UNIVERSITY, MOSCOW STATE UNIVERSITY,
     N. COPERNICUS UNIVERSITY, NAGOYA UNIVERSITY,
     NANJING UNIVERSITY, NAT. INST. OF ADVANCED INDUSTRIAL
     SCIENCE AND TECHNOLOGY, NATIONAL INST. OF STANDARDS AND
     TECHNOLOGY, NESMEYANOV INSTITUTE OF ORGANOELEMENT COMPOUNDS
     OF RUSSIAN ACADEMY OF SCIENCES, OSAKA PREFECTURE UNIVERSITY,
     PENNSYLVANIA STATE UNIVERSITY, TOKYO INSTITUTE OF TECHNOLOGY,
     UNIVERSITY OF AARHUS, UNIVERSITY OF ALBERTA,
     UNIVERSITY OF CALIFORNIA AT SANTA BARBARA,
     UNIVERSITY OF COPENHAGEN, UNIVERSITY OF IOWA,
     UNIVERSITY OF MEMPHIS, UNIVERSITY OF MINNESOTA,
     UNIVERSITY OF NEBRASKA, UNIVERSITY OF NEW ENGLAND,
     UNIVERSITY OF NOTRE DAME, UNIVERSITY OF PISA,
     UNIVERSITY OF SILESIA, UNIVERSITY OF TOKYO,
     UNIVERSITY OF ZURICH, WASEDA UNIVERSITY, YALE UNIVERSITY

  GAMESS SOFTWARE MANAGEMENT TEAM FOR THIS RELEASE:
     MARK S. GORDON (TEAM LEAD),
     BRETT BODE (SENIOR ADVISOR),
     GIUSEPPE BARCA,
     COLLEEN BERTONI,
     KRISTOPHER KEIPERT (ADVISOR),
     SAROM S. LEANG (DEVELOPMENT LEAD),
     BUU PHAM,
     JORGE LUIS GALVEZ VALLEJO (WEBSITE ADMINISTRATOR),
     PENG XU


 PARALLEL VERSION RUNNING ON       16 PROCESSORS IN        1 NODES.

 EXECUTION OF GAMESS BEGUN 14:30:56 25-DEC-2023    

            ECHO OF THE FIRST FEW INPUT CARDS -
 INPUT CARD> $CONTRL SCFTYP=UHF RUNTYP=EDA dfttyp=B3LYP ispher=1 icharg=0 mult=1 $END       
 INPUT CARD> $SYSTEM  mwords=150 memddi=150 $END                                            
 INPUT CARD> $BASIS gbasis=accd $END                                                        
 INPUT CARD> $LMOEDA MATOM(1)=5 5 MCHARG(1)=0 0 MMULT(1)=2 -2 edatyp=gks $end               
 INPUT CARD> $scf DIIS=.TRUE. ETHRSH=2.0 SWDIIS=0.005 $end                                  
 INPUT CARD> $data                                                                          
 INPUT CARD> EDA calculation with XEDA 1.0                                                  
 INPUT CARD> c1                                                                             
 INPUT CARD>C   6   -0.2506120865    0.8626216922   -1.4182692364                           
 INPUT CARD>C   6   -0.2506120865    0.8626216922   -0.0628189604                           
 INPUT CARD>H   1   -0.2958033968    1.8173315280    0.4765272241                           
 INPUT CARD>H   1   -0.2455930315   -0.0688544549   -1.9917411212                           
 INPUT CARD>H   1   -0.2545624303    1.7904119582   -1.9955833411                           
 INPUT CARD>C   6   -0.2506120865   -0.3735888292    0.7800855620                           
 INPUT CARD>C   6    0.7192758828   -1.3199036671    0.7475801384                           
 INPUT CARD>H   1    1.5815260679   -1.2346142357    0.0799017793                           
 INPUT CARD>H   1    0.6817984673   -2.2071427598    1.3843709037                           
 INPUT CARD>H   1   -1.0796748498   -0.4751844203    1.4919341994                           
 INPUT CARD> $end                                                                           
  150000000 WORDS OF MEMORY AVAILABLE

     BASIS OPTIONS
     -------------
     GBASIS=ACCD         IGAUSS=       0      POLAR=NONE    
     NDFUNC=       0     NFFUNC=       0     DIFFSP=       F
     NPFUNC=       0      DIFFS=       F     BASNAM=        


     RUN TITLE
     ---------
  EDA calculation with XEDA 1.0                                                  

 THE POINT GROUP OF THE MOLECULE IS C1      
 THE ORDER OF THE PRINCIPAL AXIS IS     0

 ATOM      ATOMIC                      COORDINATES (BOHR)
           CHARGE         X                   Y                   Z
 C           6.0    -0.4735881727        1.6301186293       -2.6801402336
 C           6.0    -0.4735881727        1.6301186293       -0.1187106220
 H           1.0    -0.5589873662        3.4342586168        0.9005058792
 H           1.0    -0.4641035340       -0.1301160528       -3.7638449575
 H           1.0    -0.4810532400        3.3833880061       -3.7711057003
 C           6.0    -0.4735881727       -0.7059805193        1.4741479592
 C           6.0     1.3592343281       -2.4942562610        1.4127216154
 H           1.0     2.9886509108       -2.3330826060        0.1509924688
 H           1.0     1.2884122820       -4.1708950318        2.6160816734
 H           1.0    -2.0402896220       -0.8979683480        2.8193468286

          INTERNUCLEAR DISTANCES (ANGS.)
          ------------------------------

                1 C          2 C          3 H          4 H          5 H     

   1 C       0.0000000    1.3554503 *  2.1222080 *  1.0938661 *  1.0927497 *
   2 C       1.3554503 *  0.0000000    1.0974550 *  2.1420583 *  2.1439190 *
   3 H       2.1222080 *  1.0974550 *  0.0000000    3.1068581    2.4726011 *
   4 H       1.0938661 *  2.1420583 *  3.1068581    0.0000000    1.8592920 *
   5 H       1.0927497 *  2.1439190 *  2.4726011 *  1.8592920 *  0.0000000  
   6 C       2.5220984 *  1.4962301 *  2.2123114 *  2.7885321 *  3.5195529  
   7 C       3.2241283    2.5220718 *  3.3084891    3.1622740    4.2599730  
   8 H       3.1622216    2.7884580 *  3.6050036    2.9981768 *  4.1023948  
   9 H       4.2600041    3.5195457    4.2398442    4.1024949    5.3180171  
  10 H       3.3085275    2.2123127 *  2.6270012 *  3.6051061    4.2398722  

                6 C          7 C          8 H          9 H         10 H     

   1 C       2.5220984 *  3.2241283    3.1622216    4.2600041    3.3085275  
   2 C       1.4962301 *  2.5220718 *  2.7884580 *  3.5195457    2.2123127 *
   3 H       2.2123114 *  3.3084891    3.6050036    4.2398442    2.6270012 *
   4 H       2.7885321 *  3.1622740    2.9981768 *  4.1024949    3.6051061  
   5 H       3.5195529    4.2599730    4.1023948    5.3180171    4.2398722  
   6 C       0.0000000    1.3554523 *  2.1420440 *  2.1439380 *  1.0974494 *
   7 C       1.3554523 *  0.0000000    1.0938666 *  1.0927489 *  2.1222246 *
   8 H       2.1420440 *  1.0938666 *  0.0000000    1.8592905 *  3.1068569  
   9 H       2.1439380 *  1.0927489 *  1.8592905 *  0.0000000    2.4726580 *
  10 H       1.0974494 *  2.1222246 *  3.1068569    2.4726580 *  0.0000000  

  * ... LESS THAN  3.000


     ATOMIC BASIS SET
     ----------------
 THE CONTRACTED PRIMITIVE FUNCTIONS HAVE BEEN UNNORMALIZED
 THE CONTRACTED BASIS FUNCTIONS ARE NOW NORMALIZED TO UNITY

  SHELL TYPE  PRIMITIVE        EXPONENT          CONTRACTION COEFFICIENT(S)

 C         

      1   S       1          6665.0000000    0.000691583963
      1   S       2          1000.0000000    0.005325796153
      1   S       3           228.0000000    0.027060721042
      1   S       4            64.7100000    0.101656846141
      1   S       5            21.0600000    0.274574823617
      1   S       6             7.4950000    0.448294318924
      1   S       7             2.7970000    0.284902610715
      1   S       8             0.5215000    0.015194859206

      2   S       9          6665.0000000   -0.000293269653
      2   S      10          1000.0000000   -0.002318035474
      2   S      11           228.0000000   -0.011499786039
      2   S      12            64.7100000   -0.046826727010
      2   S      13            21.0600000   -0.128466168750
      2   S      14             7.4950000   -0.301266272463
      2   S      15             2.7970000   -0.255630702330
      2   S      16             0.5215000    1.093793361012

      3   S      17             0.1596000    1.000000000000

      4   P      18             9.4390000    0.056979251590
      4   P      19             2.0020000    0.313207211501
      4   P      20             0.5456000    0.760376741738

      5   P      21             0.1517000    1.000000000000

      6   D      22             0.5500000    1.000000000000

      7   S      23             0.0469000    1.000000000000

      8   P      24             0.0404100    1.000000000000

      9   D      25             0.1510000    1.000000000000

 C         

     10   S      26          6665.0000000    0.000691583963
     10   S      27          1000.0000000    0.005325796153
     10   S      28           228.0000000    0.027060721042
     10   S      29            64.7100000    0.101656846141
     10   S      30            21.0600000    0.274574823617
     10   S      31             7.4950000    0.448294318924
     10   S      32             2.7970000    0.284902610715
     10   S      33             0.5215000    0.015194859206

     11   S      34          6665.0000000   -0.000293269653
     11   S      35          1000.0000000   -0.002318035474
     11   S      36           228.0000000   -0.011499786039
     11   S      37            64.7100000   -0.046826727010
     11   S      38            21.0600000   -0.128466168750
     11   S      39             7.4950000   -0.301266272463
     11   S      40             2.7970000   -0.255630702330
     11   S      41             0.5215000    1.093793361012

     12   S      42             0.1596000    1.000000000000

     13   P      43             9.4390000    0.056979251590
     13   P      44             2.0020000    0.313207211501
     13   P      45             0.5456000    0.760376741738

     14   P      46             0.1517000    1.000000000000

     15   D      47             0.5500000    1.000000000000

     16   S      48             0.0469000    1.000000000000

     17   P      49             0.0404100    1.000000000000

     18   D      50             0.1510000    1.000000000000

 H         

     19   S      51            13.0100000    0.033498726390
     19   S      52             1.9620000    0.234800801174
     19   S      53             0.4446000    0.813682957883

     20   S      54             0.1220000    1.000000000000

     21   P      55             0.7270000    1.000000000000

     22   S      56             0.0297400    1.000000000000

     23   P      57             0.1410000    1.000000000000

 H         

     24   S      58            13.0100000    0.033498726390
     24   S      59             1.9620000    0.234800801174
     24   S      60             0.4446000    0.813682957883

     25   S      61             0.1220000    1.000000000000

     26   P      62             0.7270000    1.000000000000

     27   S      63             0.0297400    1.000000000000

     28   P      64             0.1410000    1.000000000000

 H         

     29   S      65            13.0100000    0.033498726390
     29   S      66             1.9620000    0.234800801174
     29   S      67             0.4446000    0.813682957883

     30   S      68             0.1220000    1.000000000000

     31   P      69             0.7270000    1.000000000000

     32   S      70             0.0297400    1.000000000000

     33   P      71             0.1410000    1.000000000000

 C         

     34   S      72          6665.0000000    0.000691583963
     34   S      73          1000.0000000    0.005325796153
     34   S      74           228.0000000    0.027060721042
     34   S      75            64.7100000    0.101656846141
     34   S      76            21.0600000    0.274574823617
     34   S      77             7.4950000    0.448294318924
     34   S      78             2.7970000    0.284902610715
     34   S      79             0.5215000    0.015194859206

     35   S      80          6665.0000000   -0.000293269653
     35   S      81          1000.0000000   -0.002318035474
     35   S      82           228.0000000   -0.011499786039
     35   S      83            64.7100000   -0.046826727010
     35   S      84            21.0600000   -0.128466168750
     35   S      85             7.4950000   -0.301266272463
     35   S      86             2.7970000   -0.255630702330
     35   S      87             0.5215000    1.093793361012

     36   S      88             0.1596000    1.000000000000

     37   P      89             9.4390000    0.056979251590
     37   P      90             2.0020000    0.313207211501
     37   P      91             0.5456000    0.760376741738

     38   P      92             0.1517000    1.000000000000

     39   D      93             0.5500000    1.000000000000

     40   S      94             0.0469000    1.000000000000

     41   P      95             0.0404100    1.000000000000

     42   D      96             0.1510000    1.000000000000

 C         

     43   S      97          6665.0000000    0.000691583963
     43   S      98          1000.0000000    0.005325796153
     43   S      99           228.0000000    0.027060721042
     43   S     100            64.7100000    0.101656846141
     43   S     101            21.0600000    0.274574823617
     43   S     102             7.4950000    0.448294318924
     43   S     103             2.7970000    0.284902610715
     43   S     104             0.5215000    0.015194859206

     44   S     105          6665.0000000   -0.000293269653
     44   S     106          1000.0000000   -0.002318035474
     44   S     107           228.0000000   -0.011499786039
     44   S     108            64.7100000   -0.046826727010
     44   S     109            21.0600000   -0.128466168750
     44   S     110             7.4950000   -0.301266272463
     44   S     111             2.7970000   -0.255630702330
     44   S     112             0.5215000    1.093793361012

     45   S     113             0.1596000    1.000000000000

     46   P     114             9.4390000    0.056979251590
     46   P     115             2.0020000    0.313207211501
     46   P     116             0.5456000    0.760376741738

     47   P     117             0.1517000    1.000000000000

     48   D     118             0.5500000    1.000000000000

     49   S     119             0.0469000    1.000000000000

     50   P     120             0.0404100    1.000000000000

     51   D     121             0.1510000    1.000000000000

 H         

     52   S     122            13.0100000    0.033498726390
     52   S     123             1.9620000    0.234800801174
     52   S     124             0.4446000    0.813682957883

     53   S     125             0.1220000    1.000000000000

     54   P     126             0.7270000    1.000000000000

     55   S     127             0.0297400    1.000000000000

     56   P     128             0.1410000    1.000000000000

 H         

     57   S     129            13.0100000    0.033498726390
     57   S     130             1.9620000    0.234800801174
     57   S     131             0.4446000    0.813682957883

     58   S     132             0.1220000    1.000000000000

     59   P     133             0.7270000    1.000000000000

     60   S     134             0.0297400    1.000000000000

     61   P     135             0.1410000    1.000000000000

 H         

     62   S     136            13.0100000    0.033498726390
     62   S     137             1.9620000    0.234800801174
     62   S     138             0.4446000    0.813682957883

     63   S     139             0.1220000    1.000000000000

     64   P     140             0.7270000    1.000000000000

     65   S     141             0.0297400    1.000000000000

     66   P     142             0.1410000    1.000000000000

 TOTAL NUMBER OF BASIS SET SHELLS             =   66
 NUMBER OF CARTESIAN GAUSSIAN BASIS FUNCTIONS =  154
 NOTE: THIS RUN WILL RESTRICT THE MO VARIATION SPACE TO SPHERICAL HARMONICS.
 THE NUMBER OF ORBITALS KEPT IN THE VARIATIONAL SPACE WILL BE PRINTED LATER.
 NUMBER OF ELECTRONS                          =   30
 CHARGE OF MOLECULE                           =    0
 SPIN MULTIPLICITY                            =    1
 NUMBER OF OCCUPIED ORBITALS (ALPHA)          =   15
 NUMBER OF OCCUPIED ORBITALS (BETA )          =   15
 TOTAL NUMBER OF ATOMS                        =   10
 THE NUCLEAR REPULSION ENERGY IS      103.1647839156

 SELECTED MURRAY-HANDY-LAMING RADIAL GRID

 LEGACY BECKE'S FUZZY CELL METHOD

 SELECTED ORIGINAL BECKE'S PARTITION FUNCTION

     LEBEDEV GRID-BASED DFT OPTIONS
     ------------------------------
     DFTTYP=B3LYP   
     NRAD  =      96     NLEB  =     302
     NRAD0 =      24     NLEB0 =     110
     SWOFF =    5.00E-03 (PURE SCF -> DFT)
     SWITCH=    3.00E-04 (COARSE -> TIGHT GRID)
     THRESH=    0.00E+00 GTHRE=    1.00E+00

 GRIMME'S EMPIRICAL DISPERSION CORRECTION= F

     $CONTRL OPTIONS
     ---------------
 SCFTYP=UHF          RUNTYP=LMOEDA       EXETYP=RUN     
 MPLEVL=       0     CITYP =NONE         CCTYP =NONE         VBTYP =NONE    
 DFTTYP=B3LYP        TDDFT =NONE    
 MULT  =       1     ICHARG=       0     NZVAR =       0     COORD =UNIQUE  
 PP    =NONE         RELWFN=NONE         LOCAL =NONE         NUMGRD=       F
 ISPHER=       1     NOSYM =       0     MAXIT =      30     UNITS =ANGS    
 PLTORB=       F     MOLPLT=       F     AIMPAC=       F     FRIEND=        
 NPRINT=       7     IREST =       0     GEOM  =INPUT   
 NORMF =       0     NORMP =       0     ITOL  =      20     ICUT  =       9
 INTTYP=BEST         GRDTYP=BEST         QMTTOL= 1.0E-06

     $SYSTEM OPTIONS
     ---------------
  REPLICATED MEMORY=   150000000 WORDS (ON EVERY NODE).
 DISTRIBUTED MEMDDI=         150 MILLION WORDS IN AGGREGATE,
 MEMDDI DISTRIBUTED OVER  16 PROCESSORS IS     9375000 WORDS/PROCESSOR.
 TOTAL MEMORY REQUESTED ON EACH PROCESSOR=   159375000 WORDS.
 TIMLIM=      525600.00 MINUTES, OR     365.0 DAYS.
 PARALL= T  BALTYP=  DLB     KDIAG=    0  COREFL= F
 MXSEQ2=     300 MXSEQ3=     150  mem10=         0  mem22=         0

 Using Gaussians for PCM contribution to MEP, params: 0.10000E+01 0.10000E-07

          ----------------
          PROPERTIES INPUT
          ----------------

     MOMENTS            FIELD           POTENTIAL          DENSITY
 IEMOM =       1   IEFLD =       0   IEPOT =       0   IEDEN =       0
 WHERE =COMASS     WHERE =NUCLEI     WHERE =NUCLEI     WHERE =NUCLEI  
 OUTPUT=BOTH       OUTPUT=BOTH       OUTPUT=BOTH       OUTPUT=BOTH    
 IEMINT=       0   IEFINT=       0                     IEDINT=       0
                                                       MORB  =       0
          EXTRAPOLATION IN EFFECT
          DIIS IN EFFECT
          DIIS or SOSCF will be reset if energy rises
 ORBITAL PRINTING OPTION: NPREO=     1   154     2     1

     -------------------------------
     INTEGRAL TRANSFORMATION OPTIONS
     -------------------------------
     NWORD  =            0
     CUTOFF = 1.0E-09     MPTRAN =       0
     DIRTRF =       F     AOINTS =DUP     

          -----------------------------
          LOCALIZATION INPUT PARAMETERS
          -----------------------------
           LOCAL=RUEDNBRG      NOUTA=       0
          PRTLOC=       F      NOUTB=       0
          MAXLOC=     250     CVGLOC=1.00E-06
           FCORE=       F     SYMLOC=       F
          MOIDON=       F     EDCOMP=       F
          DIPDCM=       F      NPROT=       0
          QADDCM=       F     DEPRNT=       F
          POLNUM=       F     ORIENT=       F
          POLDYN=       F      VMTOL=1.50E-01
          NPRDTL=       2     IBOYAL=       1

          ----------------------
          INTEGRAL INPUT OPTIONS
          ----------------------
 NOPK  =       1 NORDER=       0 SCHWRZ=       T

     ------------------------------------------
     THE POINT GROUP IS C1 , NAXIS= 0, ORDER= 1
     ------------------------------------------

 -- VARIATIONAL SPACE WILL BE RESTRICTED TO PURE SPHERICAL HARMONICS ONLY --
 AFTER EXCLUDING CONTAMINANT COMBINATIONS FROM THE CARTESIAN GAUSSIAN BASIS
 SET, THE NUMBER OF SPHERICAL HARMONICS KEPT IN THE VARIATION SPACE IS  146

     DIMENSIONS OF THE SYMMETRY SUBSPACES ARE
 A   =  146

 ..... DONE SETTING UP THE RUN .....
 CPU     0: STEP CPU TIME=     0.04 TOTAL CPU TIME=          0.0 (      0.0 MIN)
 TOTAL WALL CLOCK TIME=          0.0 SECONDS, CPU UTILIZATION IS    82.37%

          --------------
          GKSEDA OPTIONS
          --------------
          NMOL  =       2          EDATYP=GKS     
          SUPBAS=       T          RDVECM=       F          ITRTN =       T

 *******************
 GKSEDA IS BEGINNING
 *******************

 NMOL =  2

 MONOMER     ATOM   CHARGE ELECTRON MULTIPLE
 -------------------------------------------
       1        5        0       15        2
       2        5        0       15       -2
 -------------------------------------------

 SAVING MOL INFO REQUIRES    598670 WORDS OF MEMORY.

          ********************
          1 ELECTRON INTEGRALS
          ********************
 ...... END OF ONE-ELECTRON INTEGRALS ......
 CPU     0: STEP CPU TIME=     0.01 TOTAL CPU TIME=          0.0 (      0.0 MIN)
 TOTAL WALL CLOCK TIME=          0.1 SECONDS, CPU UTILIZATION IS    83.83%

          -------------
          GUESS OPTIONS
          -------------
          GUESS =HUCKEL            NORB  =       0          NORDER=       0
          MIX   =       F          PRTMO =       F          PUNMO =       F
          TOLZ  = 1.0E-08          TOLE  = 1.0E-05
          SYMDEN=       F          PURIFY=       F

 INITIAL GUESS ORBITALS GENERATED BY HUCKEL   ROUTINE.
 HUCKEL GUESS REQUIRES    180842 WORDS.

 STATISTICS FOR GENERATION OF SYMMETRY ORBITAL -Q- MATRIX
 NUMBER OF CARTESIAN ATOMIC ORBITALS=        154
 NUMBER OF SPHERICAL CONTAMINANTS DROPPED=     8
 NUMBER OF LINEARLY DEPENDENT MOS DROPPED=     0
 TOTAL NUMBER OF MOS IN VARIATION SPACE=     146

 SYMMETRIES FOR INITIAL GUESS ORBITALS FOLLOW.  ALPHA SET(S).
    15 ORBITALS ARE OCCUPIED (    4 CORE ORBITALS).
     5=A        6=A        7=A        8=A        9=A       10=A       11=A   
    12=A       13=A       14=A       15=A       16=A       17=A       18=A   
    19=A       20=A       21=A       22=A       23=A       24=A       25=A   

 SYMMETRIES FOR INITIAL GUESS ORBITALS FOLLOW.   BETA SET(S).
    15 ORBITALS ARE OCCUPIED (    4 CORE ORBITALS).
     5=A        6=A        7=A        8=A        9=A       10=A       11=A   
    12=A       13=A       14=A       15=A       16=A       17=A       18=A   
    19=A       20=A       21=A       22=A       23=A       24=A       25=A   
 ...... END OF INITIAL ORBITAL SELECTION ......
 CPU     0: STEP CPU TIME=     0.01 TOTAL CPU TIME=          0.1 (      0.0 MIN)
 TOTAL WALL CLOCK TIME=          0.1 SECONDS, CPU UTILIZATION IS    87.08%

          -------------------------
          MONOMER  1 WITH OWN BASIS
          -------------------------

     ------------------------------------------
     THE POINT GROUP IS C1 , NAXIS= 0, ORDER= 1
     ------------------------------------------

 -- VARIATIONAL SPACE WILL BE RESTRICTED TO PURE SPHERICAL HARMONICS ONLY --
 AFTER EXCLUDING CONTAMINANT COMBINATIONS FROM THE CARTESIAN GAUSSIAN BASIS
 SET, THE NUMBER OF SPHERICAL HARMONICS KEPT IN THE VARIATION SPACE IS   73

     DIMENSIONS OF THE SYMMETRY SUBSPACES ARE
 A   =   73

          ********************
          1 ELECTRON INTEGRALS
          ********************
 ...... END OF ONE-ELECTRON INTEGRALS ......
 CPU     0: STEP CPU TIME=     0.01 TOTAL CPU TIME=          0.1 (      0.0 MIN)
 TOTAL WALL CLOCK TIME=          0.1 SECONDS, CPU UTILIZATION IS    87.85%

          -------------
          GUESS OPTIONS
          -------------
          GUESS =HUCKEL            NORB  =       0          NORDER=       0
          MIX   =       F          PRTMO =       F          PUNMO =       F
          TOLZ  = 1.0E-08          TOLE  = 1.0E-05
          SYMDEN=       F          PURIFY=       F

 INITIAL GUESS ORBITALS GENERATED BY HUCKEL   ROUTINE.
 HUCKEL GUESS REQUIRES     47410 WORDS.

 STATISTICS FOR GENERATION OF SYMMETRY ORBITAL -Q- MATRIX
 NUMBER OF CARTESIAN ATOMIC ORBITALS=         77
 NUMBER OF SPHERICAL CONTAMINANTS DROPPED=     4
 NUMBER OF LINEARLY DEPENDENT MOS DROPPED=     0
 TOTAL NUMBER OF MOS IN VARIATION SPACE=      73

 SYMMETRIES FOR INITIAL GUESS ORBITALS FOLLOW.  ALPHA SET(S).
     8 ORBITALS ARE OCCUPIED (    2 CORE ORBITALS).
     3=A        4=A        5=A        6=A        7=A        8=A        9=A   
    10=A       11=A       12=A       13=A       14=A       15=A       16=A   
    17=A       18=A   

 SYMMETRIES FOR INITIAL GUESS ORBITALS FOLLOW.   BETA SET(S).
     7 ORBITALS ARE OCCUPIED (    2 CORE ORBITALS).
     3=A        4=A        5=A        6=A        7=A        8=A        9=A   
    10=A       11=A       12=A       13=A       14=A       15=A       16=A   
    17=A   
 ...... END OF INITIAL ORBITAL SELECTION ......
 CPU     0: STEP CPU TIME=     0.00 TOTAL CPU TIME=          0.1 (      0.0 MIN)
 TOTAL WALL CLOCK TIME=          0.1 SECONDS, CPU UTILIZATION IS    88.30%

                    ----------------------
                    AO INTEGRAL TECHNOLOGY
                    ----------------------
     S,P,L SHELL ROTATED AXIS INTEGRALS, REPROGRAMMED BY
        KAZUYA ISHIMURA (IMS) AND JOSE SIERRA (SYNSTAR).
     S,P,D,L SHELL ROTATED AXIS INTEGRALS PROGRAMMED BY
        KAZUYA ISHIMURA (INSTITUTE FOR MOLECULAR SCIENCE).
     S,P,D,F,G SHELL TO TOTAL QUARTET ANGULAR MOMENTUM SUM 5,
        ERIC PROGRAM BY GRAHAM FLETCHER (ELORET AND NASA ADVANCED
        SUPERCOMPUTING DIVISION, AMES RESEARCH CENTER).
     S,P,D,F,G,L SHELL GENERAL RYS QUADRATURE PROGRAMMED BY
        MICHEL DUPUIS (PACIFIC NORTHWEST NATIONAL LABORATORY).

          --------------------
          2 ELECTRON INTEGRALS
          --------------------

 THE -PK- OPTION IS OFF, THE INTEGRALS ARE NOT IN SUPERMATRIX FORM.
 STORING   15000 INTEGRALS/RECORD ON DISK, USING 12 BYTES/INTEGRAL.
 TWO ELECTRON INTEGRAL EVALUATION REQUIRES   90957 WORDS OF MEMORY.
 SCHWARZ INEQUALITY OVERHEAD:      3003 INTEGRALS, T=        0.00
 II,JST,KST,LST =  1  1  1  1 NREC =         1 INTLOC =    1
 II,JST,KST,LST =  2  1  1  1 NREC =         1 INTLOC =    1
 II,JST,KST,LST =  3  1  1  1 NREC =         1 INTLOC =    1
 II,JST,KST,LST =  4  1  1  1 NREC =         1 INTLOC =    1
 II,JST,KST,LST =  5  1  1  1 NREC =         1 INTLOC =    1
 II,JST,KST,LST =  6  1  1  1 NREC =         1 INTLOC =    1
 II,JST,KST,LST =  7  1  1  1 NREC =         1 INTLOC =    4
 II,JST,KST,LST =  8  1  1  1 NREC =         1 INTLOC =  250
 II,JST,KST,LST =  9  1  1  1 NREC =         1 INTLOC =  250
 II,JST,KST,LST = 10  1  1  1 NREC =         1 INTLOC =  250
 II,JST,KST,LST = 11  1  1  1 NREC =         1 INTLOC =  517
 II,JST,KST,LST = 12  1  1  1 NREC =         1 INTLOC =  517
 II,JST,KST,LST = 13  1  1  1 NREC =         1 INTLOC =  517
 II,JST,KST,LST = 14  1  1  1 NREC =         1 INTLOC =  517
 II,JST,KST,LST = 15  1  1  1 NREC =         1 INTLOC = 1625
 II,JST,KST,LST = 16  1  1  1 NREC =         1 INTLOC =10104
 II,JST,KST,LST = 17  1  1  1 NREC =         1 INTLOC =10104
 II,JST,KST,LST = 18  1  1  1 NREC =         1 INTLOC =10104
 II,JST,KST,LST = 19  1  1  1 NREC =         2 INTLOC =10167
 II,JST,KST,LST = 20  1  1  1 NREC =         2 INTLOC =10167
 II,JST,KST,LST = 21  1  1  1 NREC =         2 INTLOC =10167
 II,JST,KST,LST = 22  1  1  1 NREC =         2 INTLOC =10167
 II,JST,KST,LST = 23  1  1  1 NREC =         3 INTLOC =12735
 II,JST,KST,LST = 24  1  1  1 NREC =         5 INTLOC =11697
 II,JST,KST,LST = 25  1  1  1 NREC =         6 INTLOC =14251
 II,JST,KST,LST = 26  1  1  1 NREC =         6 INTLOC =14251
 II,JST,KST,LST = 27  1  1  1 NREC =         8 INTLOC =  183
 II,JST,KST,LST = 28  1  1  1 NREC =         9 INTLOC = 5321
 II,JST,KST,LST = 29  1  1  1 NREC =        10 INTLOC = 7835
 II,JST,KST,LST = 30  1  1  1 NREC =        12 INTLOC = 7355
 II,JST,KST,LST = 31  1  1  1 NREC =        12 INTLOC = 7355
 II,JST,KST,LST = 32  1  1  1 NREC =        16 INTLOC = 7907
 II,JST,KST,LST = 33  1  1  1 NREC =        16 INTLOC = 7907
 SCHWARZ INEQUALITY TEST SKIPPED           0 INTEGRAL BLOCKS.
 TOTAL NUMBER OF NONZERO TWO-ELECTRON INTEGRALS =             3899818
        269 INTEGRAL RECORDS WERE STORED ON DISK FILE  8.
  ...... END OF TWO-ELECTRON INTEGRALS .....
 CPU     0: STEP CPU TIME=     0.03 TOTAL CPU TIME=          0.1 (      0.0 MIN)
 TOTAL WALL CLOCK TIME=          0.1 SECONDS, CPU UTILIZATION IS    89.10%

          ---------------------------
              U-B3LYP SCF CALCULATION
          ---------------------------

     NUCLEAR ENERGY =        27.8842246821
     MAXIT = 30     NPUNCH=  2     MULT=  2
     EXTRAP=T  DAMP=F  SHIFT=F  RSTRCT=F  DIIS=T  SOSCF=T
         DENSITY MATRIX CONVERGENCE THRESHOLD=  1.00E-05
     COARSE -> FINE DFT GRID SWITCH THRESHOLD=  3.00E-04 (SWITCH IN $DFT)
                   HF -> DFT SWITCH THRESHOLD=  5.00E-03 (SWOFF IN $DFT)
     SOSCF WILL OPTIMIZE     520 ALPHA AND     462 BETA ROTATION ANGLES.
     SOGTOL= 2.500E-01
     MEMORY REQUIRED FOR UHF/ROHF ITERS=    298732 WORDS.

     EXCHANGE FUNCTIONAL   =B88&HFX   
     CORRELATION FUNCTIONAL=LYP88&VWN5
     DFT THRESHOLD         =.690E-08
     GRID CHANGE THRESHOLD =.300E-03
 FOR AN EULER-MACLAURIN QUADRATURE USING  96 RADIAL POINTS:
 SMALLEST GAUSSIAN PRIMITIVE EXPONENT=        0.0297400000 OF TYPE -S-
 ON ATOM NUMBER   3 HAS RADIAL NORMALIZATION=  1.000000
  LARGEST GAUSSIAN PRIMITIVE EXPONENT=     6665.0000000000 OF TYPE -S-
 ON ATOM NUMBER   1 HAS RADIAL NORMALIZATION=  1.000000
 DFT IS SWITCHED OFF, PERFORMING PURE SCF UNTIL SWOFF THRESHOLD IS REACHED.

 ITER EX      TOTAL ENERGY        E CHANGE  DENSITY CHANGE    DIIS ERROR
          * * *   INITIATING DIIS PROCEDURE   * * *
   1  0      -77.1747278215   -77.1747278215   0.500804305   0.357466600
   2  1      -77.3688038471    -0.1940760255   0.154825265   0.054028018
   3  2      -77.3848472635    -0.0160434164   0.031178742   0.025905066
   4  3      -77.3892457742    -0.0043985107   0.022082386   0.011173242
   5  4      -77.3906304581    -0.0013846839   0.012881931   0.008523421
   6  5      -77.3912750847    -0.0006446266   0.024514413   0.008513997
   7  6      -77.3923410688    -0.0010659841   0.064797207   0.008253970
   8  7      -77.3947142829    -0.0023732141   0.108672210   0.006350146
   9  8      -77.3962240766    -0.0015097937   0.063959667   0.001881743
  10  9      -77.3958289209     0.0003951557   0.041028573   0.003934161
  11 10      -77.3962856895    -0.0004567686   0.005831914   0.000644804
  12 11      -77.3962971640    -0.0000114745   0.001352888   0.000126996
 CONVERGED TO SWOFF, SO DFT CALCULATION IS NOW SWITCHED ON.
          * * *   INITIATING DIIS PROCEDURE   * * *
  13 12      -77.8302132855    -0.4339161214   0.393203618   0.062426671
  14 13      -77.8467864949    -0.0165732095   0.062553127   0.016689507
  15 14      -77.8494575589    -0.0026710640   0.024688388   0.011964036
  16 15      -77.8509110083    -0.0014534494   0.050445630   0.007353523
  17 16      -77.8518865523    -0.0009755440   0.009089012   0.003351895
  18 17      -77.8519669504    -0.0000803981   0.005917730   0.001418243
  19 18      -77.8519865598    -0.0000196094   0.002001562   0.000279106
         SWDIIS THRESHOLD HAS BEEN REACHED: SWITCHING DIIS OFF.
          ---------------START SECOND ORDER SCF---------------
  20 19      -77.8519877026    -0.0000011428   0.000135822   0.000021592
  21 20      -77.8519877155    -0.0000000129   0.000155865   0.000022733
  22 21      -77.8519877160    -0.0000000005   0.000065902   0.000022191
  23 22      -77.8519877205    -0.0000000045   0.000008411   0.000002364
  24 23      -77.8519877206    -0.0000000001   0.000011556   0.000001856

          ----------------
          ENERGY CONVERGED
          ----------------
     TIME TO FORM FOCK OPERATORS=       1.2 SECONDS (       0.1 SEC/ITER)
     TIME TO SOLVE SCF EQUATIONS=       0.1 SECONDS (       0.0 SEC/ITER)

 FINAL U-B3LYP ENERGY IS      -77.8519877206 AFTER  24 ITERATIONS
 DFT EXCHANGE + CORRELATION ENERGY =        -9.5251824169
 TOTAL ELECTRON NUMBER             =        14.9999862171

          --------------------
          SPIN SZ   =    0.500
          S-SQUARED =    0.764
          --------------------

  ----- ALPHA SET ----- 

          ------------
          EIGENVECTORS
          ------------

                      1          2          3          4          5
                  -10.2289   -10.2018    -0.7672    -0.5779    -0.4646
                     A          A          A          A          A   
    1  C  1  S    0.012257   1.009651  -0.019699   0.011340  -0.002211
    2  C  1  S   -0.001519   0.022164   0.316384  -0.227000   0.001223
    3  C  1  S    0.040269  -0.073405   0.095704  -0.324817  -0.032670
    4  C  1  X   -0.000010   0.000016   0.000050  -0.001435  -0.003368
    5  C  1  Y   -0.000024  -0.000009   0.007671   0.031677   0.341292
    6  C  1  Z   -0.001009  -0.000343   0.110968   0.206951  -0.209639
    7  C  1  X    0.000123   0.000006  -0.000645  -0.000704  -0.000729
    8  C  1  Y   -0.001359  -0.000249   0.024298   0.026838  -0.016784
    9  C  1  Z    0.038659  -0.008969  -0.029823  -0.241950   0.039800
   10  C  1 XX    0.000218  -0.001629  -0.006289   0.001491  -0.001723
   11  C  1 YY    0.000860   0.000840  -0.007604  -0.011332   0.008471
   12  C  1 ZZ   -0.001078   0.000789   0.013893   0.009841  -0.006748
   13  C  1 XY    0.000001  -0.000016  -0.000017   0.000106  -0.000001
   14  C  1 XZ   -0.000011   0.000000   0.000036  -0.000234  -0.000201
   15  C  1 YZ    0.000473   0.000045   0.000204   0.002344  -0.006051
   16  C  1  S    0.015290  -0.033995   0.016530   0.138386  -0.059975
   17  C  1  X   -0.000006  -0.000015  -0.000064  -0.000329   0.000247
   18  C  1  Y    0.000773   0.000826  -0.003681   0.008956  -0.058870
   19  C  1  Z    0.006215  -0.003710  -0.001952   0.011882  -0.008653
   20  C  1 XX   -0.002133   0.004869   0.006421  -0.007224  -0.006242
   21  C  1 YY   -0.004473   0.001484  -0.008164   0.105804  -0.044473
   22  C  1 ZZ    0.006606  -0.006353   0.001743  -0.098580   0.050715
   23  C  1 XY    0.000034   0.000039  -0.000486  -0.001655  -0.000782
   24  C  1 XZ    0.000064   0.000020  -0.000253  -0.000033  -0.000503
   25  C  1 YZ   -0.003141  -0.001062   0.024833   0.019138   0.104882
   26  C  2  S    1.009988  -0.013839  -0.017183  -0.006461  -0.000320
   27  C  2  S    0.022736  -0.001374   0.307096   0.268920  -0.070296
   28  C  2  S   -0.089956   0.024549   0.253599   0.493369  -0.240652
   29  C  2  X   -0.000067  -0.000006  -0.001658  -0.005463  -0.006328
   30  C  2  Y    0.000898   0.000106   0.024261   0.097680   0.255052
   31  C  2  Z   -0.000222   0.000916  -0.128520   0.119434   0.163146
   32  C  2  X    0.000221   0.000076   0.001868   0.002611  -0.000078
   33  C  2  Y   -0.003174  -0.001143  -0.057756  -0.092529   0.008644
   34  C  2  Z    0.030744  -0.016879  -0.091576  -0.220451   0.062984
   35  C  2 XX   -0.000856   0.000674  -0.011454  -0.001411  -0.000454
   36  C  2 YY    0.000515   0.000641  -0.003914   0.009829   0.005681
   37  C  2 ZZ    0.000341  -0.001315   0.015368  -0.008419  -0.005227
   38  C  2 XY   -0.000056  -0.000006   0.000055  -0.000335  -0.000543
   39  C  2 XZ   -0.000049  -0.000001   0.000103  -0.000184  -0.000135
   40  C  2 YZ    0.000889   0.000039  -0.006119  -0.001655  -0.009725
   41  C  2  S   -0.029077   0.019842  -0.018864  -0.118592   0.021850
   42  C  2  X    0.000051   0.000056   0.000223   0.001091   0.000027
   43  C  2  Y   -0.001410  -0.001332  -0.000275  -0.026808   0.018178
   44  C  2  Z    0.004241  -0.005772   0.006669   0.004901  -0.013214
   45  C  2 XX    0.005997  -0.001052  -0.006888   0.006257   0.001181
   46  C  2 YY    0.004305  -0.001755  -0.017714  -0.059632  -0.008183
   47  C  2 ZZ   -0.010301   0.002807   0.024601   0.053375   0.007002
   48  C  2 XY    0.000056   0.000014   0.001325   0.002484   0.001247
   49  C  2 XZ    0.000168   0.000036   0.000071   0.000896   0.000417
   50  C  2 YZ   -0.004275  -0.001157   0.008721  -0.022364   0.013087
   51  H  3  S   -0.000660  -0.000099   0.123925   0.259002   0.193898
   52  H  3  S    0.021367   0.007200   0.064976   0.272330   0.108063
   53  H  3  X   -0.000077   0.000007   0.000562   0.000924   0.000539
   54  H  3  Y    0.001715  -0.000008  -0.012711  -0.016821  -0.005875
   55  H  3  Z    0.000739   0.000184  -0.011295  -0.010008  -0.005266
   56  H  3  S    0.001301   0.001935   0.003478   0.025872   0.010324
   57  H  3  X    0.000375   0.000114   0.000044   0.003098   0.000015
   58  H  3  Y   -0.007694  -0.002220  -0.007736  -0.042251  -0.011799
   59  H  3  Z   -0.002014  -0.000915  -0.017538  -0.029551  -0.010609
   60  H  4  S   -0.000349  -0.000854   0.116836  -0.229042  -0.141464
   61  H  4  S    0.017770   0.021920  -0.010680  -0.217857  -0.199136
   62  H  4  X    0.000003   0.000010  -0.000086  -0.000008  -0.000090
   63  H  4  Y   -0.000211  -0.001551   0.014406  -0.016888   0.000575
   64  H  4  Z   -0.000609  -0.001014   0.012536  -0.005344  -0.009992
   65  H  4  S    0.001777   0.002008   0.000059  -0.012825  -0.041665
   66  H  4  X   -0.000024  -0.000027  -0.000107  -0.000249  -0.000159
   67  H  4  Y    0.004852   0.006798  -0.009319  -0.020738  -0.049797
   68  H  4  Z    0.002431   0.003028   0.008889  -0.033899   0.011192
   69  H  5  S   -0.000191  -0.000915   0.126364  -0.202884   0.341348
   70  H  5  S    0.009342   0.019032   0.014628  -0.224993   0.435149
   71  H  5  X   -0.000004  -0.000009   0.000065  -0.000045  -0.000046
   72  H  5  Y   -0.000078   0.001520  -0.014505   0.016628  -0.010247
   73  H  5  Z   -0.000419  -0.000946   0.011312  -0.004933   0.005122
   74  H  5  S    0.001699   0.001125   0.002207  -0.013701   0.045648
   75  H  5  X   -0.000006   0.000022   0.000398   0.000774   0.000770
   76  H  5  Y   -0.002373  -0.006015   0.000717   0.020046  -0.072526
   77  H  5  Z    0.001985   0.002964  -0.002022  -0.053546   0.040813

                      6          7          8          9         10
                   -0.4138    -0.2853    -0.2730    -0.0195    -0.0019
                     A          A          A          A          A   
    1  C  1  S    0.000025  -0.000056   0.000596   0.000118  -0.003000
    2  C  1  S   -0.036285  -0.007348   0.050037   0.001463   0.084497
    3  C  1  S   -0.170447  -0.004871   0.022081   0.003093   0.345608
    4  C  1  X   -0.001962   0.389506   0.046901   0.403519  -0.000749
    5  C  1  Y   -0.254971   0.016289  -0.133592   0.001100   0.029403
    6  C  1  Z   -0.320101  -0.017258   0.111927   0.001481  -0.096196
    7  C  1  X   -0.002378   0.214524   0.025784   0.338826  -0.000833
    8  C  1  Y    0.060515  -0.003387   0.032355   0.002791   0.042325
    9  C  1  Z   -0.092552   0.002023  -0.021834   0.001149  -0.283634
   10  C  1 XX   -0.001155   0.000024   0.000542   0.000077   0.000938
   11  C  1 YY    0.010683   0.000125  -0.000642   0.000023  -0.002786
   12  C  1 ZZ   -0.009527  -0.000149   0.000101  -0.000101   0.001847
   13  C  1 XY   -0.000207   0.000619  -0.000010   0.000047   0.000093
   14  C  1 XZ   -0.000661   0.021603   0.002066  -0.030080  -0.000065
   15  C  1 YZ    0.013660  -0.003699   0.040353  -0.001247   0.001420
   16  C  1  S   -0.039159  -0.021453   0.156428  -0.002149   1.300150
   17  C  1  X   -0.000713   0.028516   0.003721   0.564851   0.003477
   18  C  1  Y    0.051206  -0.001701   0.019967   0.001714   0.037560
   19  C  1  Z   -0.015074  -0.005574   0.039739  -0.001622  -0.297102
   20  C  1 XX    0.000121   0.000580  -0.005611  -0.000220  -0.039359
   21  C  1 YY   -0.044280  -0.004129   0.028825   0.000023   0.024934
   22  C  1 ZZ    0.044159   0.003548  -0.023214   0.000197   0.014425
   23  C  1 XY   -0.000674   0.004551   0.000044  -0.003307  -0.000467
   24  C  1 XZ    0.000261   0.003708   0.000490  -0.041937  -0.000594
   25  C  1 YZ   -0.051634   0.003260  -0.035016   0.001831   0.026956
   26  C  2  S   -0.000892  -0.000041  -0.000785   0.000093  -0.002540
   27  C  2  S    0.030702   0.020711  -0.150166  -0.003607   0.056055
   28  C  2  S   -0.055020   0.040573  -0.309779  -0.008916   0.367046
   29  C  2  X   -0.009073   0.440418   0.043302  -0.411499  -0.001797
   30  C  2  Y    0.035069  -0.042736   0.472626  -0.013299   0.043676
   31  C  2  Z    0.374665   0.037495  -0.253561  -0.004542   0.082592
   32  C  2  X    0.000727   0.254449   0.028607  -0.348630  -0.005141
   33  C  2  Y   -0.066564  -0.018832   0.242036  -0.014435   0.098585
   34  C  2  Z    0.044429   0.029320  -0.221079  -0.002712  -0.007166
   35  C  2 XX   -0.001602   0.000173  -0.004798   0.000182  -0.001694
   36  C  2 YY    0.011028   0.000355   0.000023  -0.000016  -0.004877
   37  C  2 ZZ   -0.009425  -0.000528   0.004775  -0.000166   0.006571
   38  C  2 XY   -0.000574  -0.000468  -0.000879  -0.000085   0.000082
   39  C  2 XZ   -0.000400  -0.020291  -0.002674  -0.032153   0.000034
   40  C  2 YZ    0.017782  -0.002300   0.020263   0.000279  -0.003604
   41  C  2  S   -0.013875   0.033671  -0.259629  -0.004429   0.870163
   42  C  2  X    0.001304   0.031142   0.003907  -0.516628  -0.009904
   43  C  2  Y   -0.035844  -0.001521   0.023970  -0.010628   0.190713
   44  C  2  Z   -0.015386  -0.001612   0.007106  -0.004763   0.148893
   45  C  2 XX   -0.004166  -0.001196   0.006861  -0.000073  -0.039486
   46  C  2 YY   -0.036924   0.002968  -0.022858  -0.000132  -0.012661
   47  C  2 ZZ    0.041090  -0.001771   0.015997   0.000205   0.052147
   48  C  2 XY    0.002564  -0.001415   0.000530   0.008360  -0.001754
   49  C  2 XZ    0.000521  -0.007173  -0.000513  -0.037663  -0.001225
   50  C  2 YZ   -0.017173   0.000755  -0.012094   0.001546   0.033332
   51  H  3  S    0.233135  -0.021507   0.194809   0.008146   0.005302
   52  H  3  S    0.278338  -0.027903   0.248645   0.008336  -0.358483
   53  H  3  X    0.000269   0.015541   0.002071  -0.020931   0.000486
   54  H  3  Y   -0.009254  -0.000174   0.006867  -0.000609  -0.010669
   55  H  3  Z    0.001030   0.002217  -0.015788  -0.000186  -0.001579
   56  H  3  S    0.036864  -0.002253   0.027551   0.008342  -0.900105
   57  H  3  X    0.001585   0.015067   0.003753  -0.053631  -0.001689
   58  H  3  Y   -0.038747   0.002571  -0.017686   0.000555   0.031661
   59  H  3  Z   -0.036531   0.004184  -0.028965   0.000349   0.033058
   60  H  4  S    0.324745  -0.012942   0.145543  -0.003693   0.006834
   61  H  4  S    0.390702  -0.016720   0.193417  -0.006941  -0.404364
   62  H  4  X   -0.000191   0.014325   0.001724   0.021808  -0.000053
   63  H  4  Y    0.009649   0.000181  -0.000803   0.000218   0.009660
   64  H  4  Z    0.003095  -0.000676   0.005089   0.000252   0.002016
   65  H  4  S    0.035669  -0.003485   0.039769  -0.013927  -0.637116
   66  H  4  X   -0.000517   0.015632   0.001725   0.045322  -0.000109
   67  H  4  Y    0.054965  -0.003575   0.035485   0.000343  -0.063737
   68  H  4  Z    0.052167  -0.000192   0.003378   0.001880  -0.016884
   69  H  5  S   -0.072155   0.022859  -0.208860   0.003292   0.003837
   70  H  5  S   -0.182978   0.036960  -0.335791   0.005973  -0.420419
   71  H  5  X   -0.000056   0.014264   0.001753   0.022661   0.000086
   72  H  5  Y   -0.003193  -0.000003  -0.000086   0.000149  -0.012232
   73  H  5  Z   -0.010875  -0.000081   0.000274  -0.000112   0.003418
   74  H  5  S   -0.043055   0.003193  -0.041728   0.004919  -1.138562
   75  H  5  X    0.000590   0.012693   0.001739   0.052836  -0.000084
   76  H  5  Y    0.051025  -0.004511   0.042985   0.000539   0.036531
   77  H  5  Z   -0.005784   0.003297  -0.022849  -0.001117  -0.025000

                     11         12         13         14         15
                    0.0149     0.0250     0.0627     0.0712     0.0790
                     A          A          A          A          A   
    1  C  1  S   -0.001252   0.002369   0.001089   0.007707   0.002924
    2  C  1  S    0.067572  -0.017208  -0.001518  -0.011891   0.044200
    3  C  1  S    0.184281  -0.128134  -0.058501  -0.389560   0.153186
    4  C  1  X   -0.000726  -0.000817   0.171726  -0.017685   0.001618
    5  C  1  Y   -0.067283  -0.118579   0.003663   0.036821   0.011393
    6  C  1  Z   -0.036331   0.005169   0.000873   0.013884   0.054217
    7  C  1  X    0.000155  -0.001145   0.198890  -0.020950  -0.001516
    8  C  1  Y   -0.171245  -0.371799   0.006004   0.101188   0.010050
    9  C  1  Z   -0.273830   0.105502  -0.007553   0.030924  -0.047198
   10  C  1 XX    0.002810  -0.003173  -0.000501  -0.007379  -0.006783
   11  C  1 YY    0.004854  -0.001730   0.000128   0.001032  -0.010959
   12  C  1 ZZ   -0.007664   0.004904   0.000374   0.006347   0.017742
   13  C  1 XY   -0.000133  -0.000008  -0.000888  -0.000005  -0.000037
   14  C  1 XZ    0.000379   0.000020   0.006150  -0.000223  -0.000123
   15  C  1 YZ   -0.004812  -0.003821  -0.000953  -0.010516   0.002999
   16  C  1  S    0.429661  -1.735328  -1.260213 -10.813755   1.503578
   17  C  1  X   -0.012048   0.011676  -0.625540   0.071236   0.001772
   18  C  1  Y   -0.201383  -1.942054   0.092638   0.428702  -0.493563
   19  C  1  Z   -0.532819  -0.364248  -0.528880  -4.814402  -1.563334
   20  C  1 XX   -0.010911   0.016514   0.008117   0.081499   0.022865
   21  C  1 YY    0.022458  -0.051218  -0.013113  -0.153419   0.017119
   22  C  1 ZZ   -0.011547   0.034704   0.004996   0.071920  -0.039984
   23  C  1 XY   -0.001319   0.001186   0.024211   0.000001   0.001462
   24  C  1 XZ    0.001148  -0.001417   0.040622  -0.005124  -0.001064
   25  C  1 YZ   -0.043331   0.100020  -0.003308   0.004459   0.114733
   26  C  2  S   -0.001254  -0.000752  -0.000995  -0.005490   0.005495
   27  C  2  S   -0.072957   0.047981   0.004006   0.040702   0.030496
   28  C  2  S   -0.229934   0.243626   0.065495   0.430947   0.052416
   29  C  2  X    0.005763   0.000395   0.127840  -0.008756  -0.000238
   30  C  2  Y   -0.085138  -0.045988  -0.010303  -0.141954   0.061239
   31  C  2  Z   -0.027986   0.023405   0.001672   0.004545  -0.075678
   32  C  2  X    0.011241  -0.003969   0.144431  -0.024243   0.007792
   33  C  2  Y   -0.159548   0.092516   0.027283   0.114786  -0.142948
   34  C  2  Z   -0.250593   0.149372  -0.005493   0.042942  -0.065471
   35  C  2 XX   -0.003381   0.001486  -0.000319   0.001419  -0.010043
   36  C  2 YY   -0.001791   0.002134   0.000470  -0.000585  -0.013448
   37  C  2 ZZ    0.005172  -0.003621  -0.000151  -0.000833   0.023491
   38  C  2 XY   -0.000281   0.000021   0.003889  -0.000218   0.000153
   39  C  2 XZ   -0.000026   0.000095  -0.013360   0.001276   0.000088
   40  C  2 YZ    0.008186   0.007580   0.000052   0.002000  -0.006671
   41  C  2  S   -0.492061   2.270795   1.285236  11.112505  -0.304972
   42  C  2  X    0.035109  -0.018385  -0.589411   0.070532  -0.012208
   43  C  2  Y   -0.555972   1.022974  -0.039398   0.319726  -0.062000
   44  C  2  Z   -0.627621  -0.229906  -0.503561  -4.175687   1.880840
   45  C  2 XX    0.007648  -0.041098  -0.006593  -0.075945   0.063266
   46  C  2 YY   -0.063109   0.032801   0.005407   0.084310  -0.027507
   47  C  2 ZZ    0.055461   0.008297   0.001186  -0.008365  -0.035758
   48  C  2 XY    0.004019  -0.002885  -0.039933  -0.003293   0.001831
   49  C  2 XZ    0.002899  -0.003434  -0.015496  -0.000732  -0.003194
   50  C  2 YZ   -0.072524   0.085128   0.003203   0.059577   0.082989
   51  H  3  S    0.016372   0.015085  -0.000755  -0.022624  -0.017346
   52  H  3  S    0.671481  -0.545489  -0.094107  -0.846981   0.217485
   53  H  3  X   -0.000404   0.000172  -0.005784   0.000163   0.000340
   54  H  3  Y    0.010265   0.000132   0.000881   0.009752  -0.008452
   55  H  3  Z    0.008207  -0.000498   0.000230   0.005355   0.007046
   56  H  3  S    2.557315  -1.430915   0.374971   3.475936  -0.157786
   57  H  3  X    0.004286  -0.007351   0.037950  -0.012802   0.004677
   58  H  3  Y   -0.083035   0.132375   0.018819   0.135546  -0.084827
   59  H  3  Z   -0.021368   0.003474   0.020370   0.140460  -0.097009
   60  H  4  S   -0.009543   0.012715  -0.001896  -0.023572  -0.024319
   61  H  4  S   -0.446447  -0.454487   0.066200   0.588711  -0.347551
   62  H  4  X   -0.000182  -0.000071  -0.003531   0.000445   0.000010
   63  H  4  Y    0.007626   0.002782   0.000194  -0.000170   0.003663
   64  H  4  Z    0.007139   0.002825  -0.000836  -0.010505  -0.011194
   65  H  4  S   -2.039087  -3.108558   0.032358   0.443336  -1.129625
   66  H  4  X   -0.000335   0.000719   0.070240  -0.007655   0.001444
   67  H  4  Y   -0.060125  -0.053161   0.002857   0.032944  -0.012039
   68  H  4  Z   -0.008029  -0.052998   0.012909   0.144174   0.029969
   69  H  5  S    0.002805  -0.002464   0.002123   0.025347  -0.038363
   70  H  5  S   -0.160949   0.859930   0.039882   0.404999   0.097050
   71  H  5  X   -0.000190  -0.000035  -0.004196   0.000380   0.000001
   72  H  5  Y   -0.002496   0.004218  -0.000062  -0.001362  -0.006307
   73  H  5  Z    0.003255  -0.007301  -0.000325  -0.002384  -0.014338
   74  H  5  S   -0.492272   3.802613  -0.456212  -4.332810   0.589670
   75  H  5  X    0.000110  -0.000726   0.030585  -0.006250   0.000915
   76  H  5  Y    0.063859  -0.091694  -0.001464  -0.002538  -0.090936
   77  H  5  Z    0.051337   0.068335   0.012772   0.100192   0.038051

                     16         17         18         19         20
                    0.1117     0.1127     0.1167     0.1279     0.1459
                     A          A          A          A          A   
    1  C  1  S    0.005640   0.001860  -0.038808  -0.014862  -0.015080
    2  C  1  S   -0.058670  -0.009115  -0.204880  -0.018966  -0.121111
    3  C  1  S   -1.000969  -0.219956   0.318433   0.525032   0.538762
    4  C  1  X   -0.049124   0.231484   0.002855   0.002955  -0.002438
    5  C  1  Y    0.111205   0.023857  -0.084274   0.237375   0.040629
    6  C  1  Z    0.002263   0.000044   0.121658   0.000476   0.131248
    7  C  1  X   -0.035867   0.183969  -0.000523   0.007258  -0.008192
    8  C  1  Y   -0.417845  -0.084414   0.296075  -0.929420  -0.171857
    9  C  1  Z   -1.224375  -0.242506  -1.555708  -0.380075   1.547316
   10  C  1 XX    0.001073  -0.000170   0.019900   0.016711  -0.039563
   11  C  1 YY   -0.000327   0.000083   0.003767  -0.008232   0.048886
   12  C  1 ZZ   -0.000746   0.000087  -0.023667  -0.008479  -0.009323
   13  C  1 XY   -0.000610   0.001138   0.000058   0.000824  -0.000979
   14  C  1 XZ    0.000683  -0.006886   0.000098  -0.000109   0.000412
   15  C  1 YZ    0.023940   0.004472  -0.007238   0.009292  -0.016636
   16  C  1  S   -5.638839  -1.156255   5.077241   5.299410   0.191875
   17  C  1  X    0.431513  -2.195340  -0.038309   0.030183   0.021977
   18  C  1  Y   -0.295523  -0.093301   1.846753  -6.050554  -2.455070
   19  C  1  Z   -3.562462  -0.701715  -1.939295   1.713714   0.576678
   20  C  1 XX    0.045706   0.012794  -0.160666  -0.037205  -0.096129
   21  C  1 YY    0.183354   0.032475   0.343644   0.202404  -0.660447
   22  C  1 ZZ   -0.229059  -0.045270  -0.182978  -0.165199   0.756576
   23  C  1 XY    0.004014  -0.033733  -0.003476  -0.002614   0.005222
   24  C  1 XZ    0.013725  -0.055746  -0.002642  -0.003461  -0.004173
   25  C  1 YZ   -0.060270  -0.013303  -0.015261   0.330966   0.323693
   26  C  2  S    0.008343   0.002536  -0.036037  -0.026380   0.024680
   27  C  2  S    0.110430   0.023982  -0.112506  -0.099475   0.013489
   28  C  2  S    0.486595   0.073395   1.287120   0.782696  -2.189655
   29  C  2  X    0.040221  -0.238136  -0.002390  -0.001702   0.006805
   30  C  2  Y    0.179468   0.029578  -0.007193   0.001529  -0.092086
   31  C  2  Z    0.059316   0.011425  -0.085051  -0.008766  -0.067380
   32  C  2  X    0.069359  -0.218612  -0.010732  -0.019974   0.017492
   33  C  2  Y   -0.354613  -0.100405   0.134427   0.401939  -0.513467
   34  C  2  Z   -1.356706  -0.287340  -0.895543   0.125351   1.089847
   35  C  2 XX   -0.004679  -0.000828   0.005458   0.013630  -0.011854
   36  C  2 YY    0.005941   0.000793   0.002416  -0.007887   0.017794
   37  C  2 ZZ   -0.001262   0.000035  -0.007874  -0.005743  -0.005939
   38  C  2 XY    0.000382  -0.005989  -0.000356   0.000626  -0.000239
   39  C  2 XZ    0.000918  -0.004056   0.000072   0.000003   0.000473
   40  C  2 YZ   -0.015958  -0.002699   0.004055  -0.017200   0.001499
   41  C  2  S    4.062943   0.680184   2.624639  -0.914214  -1.970852
   42  C  2  X   -0.320490   2.216930   0.041650  -0.082157  -0.019081
   43  C  2  Y   -2.759492  -0.545248  -0.764437   3.502551   0.704674
   44  C  2  Z   -4.152589  -0.838475  -0.140919   2.250006   1.088810
   45  C  2 XX    0.008041   0.000458  -0.128146  -0.071550  -0.023778
   46  C  2 YY   -0.303450  -0.061231  -0.129743   0.039928   0.195950
   47  C  2 ZZ    0.295409   0.060773   0.257889   0.031622  -0.172172
   48  C  2 XY    0.004922   0.064348  -0.001846  -0.003959  -0.002436
   49  C  2 XZ    0.028035  -0.081169  -0.004706  -0.007411  -0.007348
   50  C  2 YZ   -0.242826  -0.054916   0.095304   0.145392   0.186070
   51  H  3  S   -0.022059   0.000913   0.010432  -0.087331   0.102001
   52  H  3  S    2.213514   0.525599  -0.537192  -1.786621   0.608411
   53  H  3  X    0.000896  -0.000408  -0.000496  -0.000618   0.000332
   54  H  3  Y   -0.019374  -0.004544   0.011417   0.011018  -0.008262
   55  H  3  Z   -0.011868  -0.002933  -0.001871   0.015081  -0.005183
   56  H  3  S    6.074877   1.285376   0.162322  -3.844275  -0.769814
   57  H  3  X    0.047239  -0.111765  -0.012547  -0.019896   0.002188
   58  H  3  Y   -0.602364  -0.139394   0.246180   0.280869   0.212606
   59  H  3  Z   -0.381291  -0.085438   0.067305   0.161488  -0.141090
   60  H  4  S    0.027805   0.004001  -0.002321  -0.058088   0.099968
   61  H  4  S   -1.060116  -0.196197  -1.677657  -3.137013   0.712142
   62  H  4  X    0.000204  -0.000236   0.000056   0.000179   0.000049
   63  H  4  Y   -0.010723  -0.002172  -0.009503  -0.022820  -0.024221
   64  H  4  Z   -0.008776  -0.001793  -0.000927  -0.011051   0.005777
   65  H  4  S   -3.837565  -0.752296  -0.771880  -5.113238  -1.976007
   66  H  4  X   -0.012656   0.089249   0.003689  -0.001506   0.004336
   67  H  4  Y   -0.325282  -0.060175  -0.441404  -0.569900  -0.477032
   68  H  4  Z   -0.300722  -0.054531  -0.206213  -0.568727   0.398417
   69  H  5  S   -0.020470  -0.001295  -0.017617  -0.022970   0.225991
   70  H  5  S   -0.041456   0.020021  -2.733038   1.093263   2.823127
   71  H  5  X   -0.000204   0.001538  -0.000067   0.000182  -0.000222
   72  H  5  Y   -0.007959  -0.001983   0.026076  -0.016555   0.011481
   73  H  5  Z    0.000669   0.000235  -0.013672   0.014689  -0.000223
   74  H  5  S   -1.212818  -0.232835  -4.242365   6.553677   2.817902
   75  H  5  X   -0.023613   0.119357  -0.003404   0.009147  -0.007391
   76  H  5  Y   -0.007584  -0.003340   0.669750  -0.420636   0.141075
   77  H  5  Z    0.102708   0.023457  -0.422376   0.163112   0.435784

                     21         22         23         24         25
                    0.1685     0.1954     0.2193     0.2532     0.2858
                     A          A          A          A          A   
    1  C  1  S    0.049128   0.018759   0.000498  -0.005178  -0.010020
    2  C  1  S    0.157786   0.012538   0.000284  -0.030532  -0.136994
    3  C  1  S   -2.132333  -0.562056   0.015789   0.753134   0.401604
    4  C  1  X   -0.004216   0.001902   0.002137   0.000749   0.002123
    5  C  1  Y   -0.066003   0.123444  -0.020475  -0.199607   0.008711
    6  C  1  Z   -0.061573  -0.020659   0.000822   0.075096  -0.014943
    7  C  1  X   -0.007611  -0.019326  -0.068066   0.003770   0.004696
    8  C  1  Y   -0.092577   0.602570  -0.038988  -0.225989   0.089782
    9  C  1  Z   -1.016632   1.221871   0.098021   0.738405   2.424210
   10  C  1 XX    0.014278  -0.024899  -0.000766  -0.015257  -0.023719
   11  C  1 YY   -0.005884   0.025919   0.000041   0.017231  -0.073767
   12  C  1 ZZ   -0.008394  -0.001020   0.000724  -0.001974   0.097486
   13  C  1 XY   -0.001401   0.000398   0.047413  -0.003709   0.000887
   14  C  1 XZ    0.000912  -0.000829  -0.002621  -0.000204   0.000845
   15  C  1 YZ   -0.037648   0.037315  -0.004705  -0.031620  -0.012988
   16  C  1  S  -18.296438 -20.844118  -0.981785 -10.326932   2.298304
   17  C  1  X   -0.012958  -0.021664   0.017788   0.014086   0.013939
   18  C  1  Y   -0.147882   2.487513  -0.103504  -1.749724  -0.966917
   19  C  1  Z   -6.196139  -5.909506  -0.291480  -2.259433   4.005560
   20  C  1 XX    0.179555   0.120426  -0.003723   0.085364  -0.276256
   21  C  1 YY    0.141414  -0.560262  -0.014023  -0.203969   0.124487
   22  C  1 ZZ   -0.320969   0.439836   0.017746   0.118605   0.151769
   23  C  1 XY    0.001488   0.007082  -0.178619   0.025095  -0.016489
   24  C  1 XZ   -0.004058  -0.010399  -0.015720  -0.002712  -0.004465
   25  C  1 YZ    0.448823  -0.194279   0.071465   0.860700   0.210094
   26  C  2  S   -0.045702  -0.017660  -0.000435  -0.004351   0.034203
   27  C  2  S   -0.197989  -0.048734  -0.001657  -0.000474   0.162923
   28  C  2  S    1.621484  -0.515445  -0.004205  -0.347324  -0.658341
   29  C  2  X    0.006902  -0.010075  -0.040423  -0.006088   0.006407
   30  C  2  Y   -0.038944   0.063544   0.016640   0.287614  -0.038992
   31  C  2  Z   -0.109959  -0.006049  -0.004089   0.021208  -0.249550
   32  C  2  X    0.004062  -0.036567  -0.234503  -0.019279  -0.004178
   33  C  2  Y   -0.154447   0.791773   0.044038   0.381755   0.421270
   34  C  2  Z   -1.210454   1.127316   0.084477   0.779343   1.589256
   35  C  2 XX   -0.016268   0.012182  -0.001094   0.014631   0.029391
   36  C  2 YY    0.011532   0.003577   0.001270  -0.021628   0.021659
   37  C  2 ZZ    0.004736  -0.015759  -0.000176   0.006997  -0.051049
   38  C  2 XY   -0.002298   0.001488   0.021955   0.000038  -0.001180
   39  C  2 XZ   -0.000155   0.001766   0.009160  -0.000337  -0.000370
   40  C  2 YZ    0.018003  -0.052538   0.003295   0.010207  -0.007651
   41  C  2  S   18.514969  20.995893   1.002930  10.971674  -3.987810
   42  C  2  X    0.086406   0.021593  -0.166436  -0.028875  -0.039109
   43  C  2  Y   -1.681804  -1.007719   0.007814   1.606338   1.296107
   44  C  2  Z   -6.140908  -5.248661  -0.326192  -2.406225   1.594504
   45  C  2 XX   -0.185510  -0.163672   0.004409  -0.003137   0.186103
   46  C  2 YY   -0.168246   0.200415   0.026032   0.199118   0.183257
   47  C  2 ZZ    0.353756  -0.036743  -0.030441  -0.195981  -0.369360
   48  C  2 XY   -0.009966  -0.005126   0.255745  -0.030384   0.005089
   49  C  2 XZ   -0.003866  -0.026962  -0.112407  -0.000118  -0.004531
   50  C  2 YZ    0.337841   0.277891   0.041760   0.613521   0.334481
   51  H  3  S    0.177575  -0.180496   0.003667  -0.091413  -0.024338
   52  H  3  S   -0.264841  -3.018136  -0.250437  -2.913424  -2.154430
   53  H  3  X   -0.000219  -0.000415  -0.004124   0.000649  -0.000312
   54  H  3  Y    0.013074  -0.002334   0.000538  -0.003083   0.002420
   55  H  3  Z    0.004941  -0.007260   0.000022  -0.004610  -0.012341
   56  H  3  S    3.147182   1.722983   0.183005   0.156141  -2.676907
   57  H  3  X   -0.038450  -0.021234   0.520142  -0.037037  -0.080676
   58  H  3  Y    0.597018   0.624390   0.051347  -0.242396   0.713714
   59  H  3  Z    0.158130  -0.197540   0.057655   0.217894   0.240909
   60  H  4  S   -0.159210   0.216349  -0.010010   0.014154   0.017031
   61  H  4  S   -0.603924   3.605601  -0.071692  -0.783198   1.191648
   62  H  4  X   -0.000312   0.000301  -0.000708   0.000290  -0.000174
   63  H  4  Y    0.019840   0.001726   0.001097  -0.000015   0.015430
   64  H  4  Z    0.022236  -0.001606   0.002210   0.024502  -0.008886
   65  H  4  S   -2.009615   0.917863  -0.095380  -0.457664   0.906014
   66  H  4  X    0.014483  -0.005221  -0.731783   0.074850  -0.029096
   67  H  4  Y    0.134630   0.195278   0.001241  -0.338593   0.592585
   68  H  4  Z    0.221933   0.132708   0.047384   0.417191  -0.845944
   69  H  5  S    0.029621  -0.054575   0.012862   0.155905   0.046969
   70  H  5  S    1.538911   1.089315   0.274468   2.734937   1.920587
   71  H  5  X   -0.000121   0.000149   0.003167  -0.000369   0.000225
   72  H  5  Y   -0.015766   0.002047   0.000515   0.016367  -0.012603
   73  H  5  Z   -0.007803   0.016105  -0.002331  -0.017847  -0.017488
   74  H  5  S   -1.438885  -3.095449  -0.090065   0.017775   2.697358
   75  H  5  X   -0.022410   0.012149   0.832660  -0.067253   0.007714
   76  H  5  Y   -0.471348  -0.050550  -0.033621  -0.031447  -0.833601
   77  H  5  Z   -0.035899   0.606320  -0.031156  -0.526212  -0.863971

                     26         27         28         29         30
                    0.3082     0.3150     0.3553     0.3769     0.4045
                     A          A          A          A          A   
    1  C  1  S   -0.004890  -0.029951   0.000085  -0.019640   0.040296
    2  C  1  S   -0.021662  -0.126712  -0.000888  -0.058807  -0.017059
    3  C  1  S    0.206067   1.417129  -0.016271   1.775385  -2.134668
    4  C  1  X   -0.056658   0.015743  -0.246758  -0.004365  -0.002717
    5  C  1  Y   -0.023715  -0.138463  -0.000535   0.279896   0.054827
    6  C  1  Z   -0.042546  -0.248293   0.000308  -0.076062  -0.000190
    7  C  1  X   -0.344538   0.037919  -0.969217  -0.016694  -0.019092
    8  C  1  Y    0.060514   0.213274   0.007475   3.094284   0.296578
    9  C  1  Z    0.434337   2.254495  -0.055221   1.727918  -1.810221
   10  C  1 XX   -0.003841  -0.026572  -0.000193  -0.013419   0.018426
   11  C  1 YY   -0.003378   0.001761   0.000482   0.006263   0.008347
   12  C  1 ZZ    0.007219   0.024811  -0.000289   0.007156  -0.026774
   13  C  1 XY   -0.034472   0.004631   0.011004  -0.000365  -0.000382
   14  C  1 XZ   -0.017908   0.003304  -0.029602   0.000322  -0.000271
   15  C  1 YZ   -0.004344  -0.022953  -0.000870  -0.050523  -0.009968
   16  C  1  S    1.312175   5.136671   0.007931   0.097186  -6.285754
   17  C  1  X   -0.088930   0.065975  -1.113523  -0.021566  -0.040636
   18  C  1  Y   -0.650395  -3.570757  -0.003939   4.835941   1.582358
   19  C  1  Z    0.457293   1.465032   0.008190  -0.070223  -1.788713
   20  C  1 XX   -0.042372  -0.075580   0.012193  -0.074622   0.528477
   21  C  1 YY   -0.075416  -0.550886   0.010723  -0.335843   0.611832
   22  C  1 ZZ    0.117788   0.626466  -0.022916   0.410465  -1.140309
   23  C  1 XY    0.513063  -0.078216  -0.225971   0.008924   0.029404
   24  C  1 XZ   -0.004092  -0.029901   0.076717   0.008286   0.001468
   25  C  1 YZ    0.175319   1.044484   0.014918   0.322461   0.269942
   26  C  2  S    0.005974   0.026960  -0.000237   0.010374   0.032353
   27  C  2  S    0.023844   0.107047  -0.000711   0.028277  -0.012612
   28  C  2  S   -0.310429  -1.523229   0.037383  -0.557552  -0.269312
   29  C  2  X   -0.111012   0.021637   0.044108  -0.001296   0.004387
   30  C  2  Y    0.002622   0.034300  -0.003860   0.034685  -0.203483
   31  C  2  Z   -0.004544   0.020465   0.001072  -0.017754   0.034408
   32  C  2  X   -0.626271   0.116090   0.446489  -0.046860   0.084006
   33  C  2  Y   -0.110947  -0.498343  -0.038861   0.167275  -2.261115
   34  C  2  Z    0.522030   2.942571  -0.053803   2.016955  -2.954116
   35  C  2 XX    0.003132   0.028278   0.000564   0.007317   0.005533
   36  C  2 YY    0.011392   0.050552  -0.000628   0.011091  -0.021079
   37  C  2 ZZ   -0.014524  -0.078830   0.000065  -0.018409   0.015546
   38  C  2 XY    0.034768  -0.006572  -0.010165  -0.000072   0.002017
   39  C  2 XZ    0.024560  -0.002854   0.015236  -0.000158   0.000494
   40  C  2 YZ   -0.002961  -0.020890  -0.000432   0.006096  -0.007436
   41  C  2  S   -1.065066  -4.130318  -0.075523   0.607656   0.725574
   42  C  2  X   -0.477461  -0.010278   0.536040  -0.021611   0.105315
   43  C  2  Y    0.488963   2.599724  -0.018663  -0.624773  -2.751609
   44  C  2  Z    0.774442   3.870565   0.017540   0.611143  -1.910993
   45  C  2 XX    0.074312   0.348647   0.007862   0.146436   0.898641
   46  C  2 YY    0.041375   0.373660  -0.020762   0.767459  -0.960325
   47  C  2 ZZ   -0.115688  -0.722308   0.012899  -0.913894   0.061683
   48  C  2 XY   -0.359179   0.056048  -0.180576  -0.019088   0.081276
   49  C  2 XZ   -0.170185  -0.012891   0.326844  -0.005339   0.000815
   50  C  2 YZ    0.186654   1.137422   0.016139   0.728937   0.121976
   51  H  3  S   -0.008375  -0.020241   0.000514   0.053443  -0.034867
   52  H  3  S   -0.519970  -2.900180   0.100911  -3.270748   6.784863
   53  H  3  X    0.004872  -0.000450   0.000117   0.000023  -0.000011
   54  H  3  Y   -0.000146  -0.000642  -0.000036   0.000441   0.002026
   55  H  3  Z   -0.006283  -0.034039  -0.000001  -0.009652   0.008886
   56  H  3  S   -0.621002  -2.844908   0.002426  -0.570438   3.008791
   57  H  3  X    1.494305  -0.300682  -0.381860  -0.034851   0.093985
   58  H  3  Y    0.235699   1.014112  -0.023000   0.479013  -1.426984
   59  H  3  Z   -0.176744  -1.059027  -0.024732   0.741295  -0.886947
   60  H  4  S   -0.014765  -0.050293   0.001257   0.026387   0.039218
   61  H  4  S   -0.062379  -0.581187  -0.039846   4.297271   0.154721
   62  H  4  X    0.005072  -0.000359  -0.011968  -0.000059  -0.000550
   63  H  4  Y    0.000678  -0.001062   0.000018   0.005072   0.003883
   64  H  4  Z    0.000507   0.004152   0.000200   0.002930   0.000782
   65  H  4  S   -0.214206  -1.310183  -0.001420   4.139528   0.205885
   66  H  4  X    1.268556  -0.217862   0.719958   0.021770   0.053432
   67  H  4  Y    0.082769   0.132008  -0.020339  -0.101289  -0.292679
   68  H  4  Z    0.115524   0.772499  -0.009204   1.549026  -0.436993
   69  H  5  S    0.003339   0.045306   0.002038   0.008226   0.021748
   70  H  5  S    0.514523   3.288721  -0.004641  -2.657720   0.526190
   71  H  5  X   -0.006376   0.001042  -0.010061  -0.000261   0.000193
   72  H  5  Y    0.000434   0.008309   0.000238   0.014483   0.000532
   73  H  5  Z   -0.005777  -0.032381  -0.000208  -0.018225   0.001654
   74  H  5  S    0.721015   3.609221   0.023299  -3.848788  -0.952920
   75  H  5  X   -0.460542   0.061247   1.620215  -0.005312  -0.029382
   76  H  5  Y   -0.111761  -0.536870   0.008866  -0.404285  -0.218556
   77  H  5  Z    0.037538   0.407923  -0.013882  -0.912143  -0.195103

                     31         32         33         34         35
                    0.4381     0.4435     0.4482     0.4763     0.4834
                     A          A          A          A          A   
    1  C  1  S    0.065003   0.011673   0.002955   0.021893  -0.002164
    2  C  1  S    0.030830  -0.049884  -0.002931  -0.025181   0.030573
    3  C  1  S   -4.174839   0.880463   0.116421  -2.175727   0.248461
    4  C  1  X    0.000647  -0.052185   0.244379   0.016178   0.042658
    5  C  1  Y    0.026101  -0.062613  -0.002987  -0.134534  -0.051648
    6  C  1  Z    0.080723  -0.004064   0.018108  -0.009524   0.070132
    7  C  1  X   -0.001498  -0.335749   1.782406   0.123995   0.267417
    8  C  1  Y   -0.620155   1.185294   0.586992  -3.571272   0.852955
    9  C  1  Z    5.923946   3.705019   0.755594  -0.751508   1.007132
   10  C  1 XX    0.017804  -0.008751  -0.000101  -0.012874   0.001619
   11  C  1 YY   -0.026589  -0.004972  -0.002102   0.012792  -0.003173
   12  C  1 ZZ    0.008786   0.013723   0.002203   0.000082   0.001554
   13  C  1 XY    0.000483  -0.001052   0.002038  -0.000406   0.004862
   14  C  1 XZ    0.000124   0.000692  -0.013786  -0.002084   0.030891
   15  C  1 YZ    0.020398   0.011796  -0.001421  -0.012713  -0.016212
   16  C  1  S   -6.826315  -3.838031  -1.404656   3.542206  -1.034480
   17  C  1  X   -0.008660  -0.195198   1.123107   0.067473  -0.171084
   18  C  1  Y   -0.594156   1.614990   0.477924  -0.766860   0.378603
   19  C  1  Z    1.106948   0.217708  -0.067078   0.786737  -0.024508
   20  C  1 XX    0.582816   0.250049   0.101879  -0.455307   0.044671
   21  C  1 YY   -1.951493  -0.757929  -0.142112   0.484999  -0.216401
   22  C  1 ZZ    1.368677   0.507880   0.040234  -0.029692   0.171731
   23  C  1 XY    0.003072   0.053588  -0.255543  -0.040457   0.308303
   24  C  1 XZ   -0.009599   0.139767  -0.103081   0.059173  -1.396548
   25  C  1 YZ    0.608222  -2.600377  -0.465183  -0.149569  -0.481748
   26  C  2  S    0.062694   0.028361   0.002317   0.053880   0.007964
   27  C  2  S    0.000037  -0.022485  -0.011971   0.013353  -0.025920
   28  C  2  S   -6.470876  -2.463039  -0.285901  -4.315237  -1.315598
   29  C  2  X    0.002191   0.027423  -0.252325  -0.015918   0.249412
   30  C  2  Y    0.128072   0.064855   0.007615  -0.137051  -0.002293
   31  C  2  Z    0.028159  -0.083787   0.003019  -0.175920   0.042423
   32  C  2  X    0.034356  -0.054922  -0.707307   0.018229   1.507437
   33  C  2  Y   -0.710175   3.179360   0.532041  -1.441834   0.108089
   34  C  2  Z    3.077671   2.765307   0.614651  -2.337075   0.900774
   35  C  2 XX    0.033240  -0.000682  -0.000688  -0.010859  -0.002086
   36  C  2 YY   -0.012681   0.026642   0.004913   0.016686   0.004764
   37  C  2 ZZ   -0.020559  -0.025960  -0.004225  -0.005827  -0.002678
   38  C  2 XY    0.001380  -0.002074   0.004148  -0.000962  -0.004416
   39  C  2 XZ    0.000685   0.001581  -0.015080  -0.002278  -0.001467
   40  C  2 YZ   -0.020609   0.053674   0.010109   0.013665   0.012739
   41  C  2  S   -0.749215   1.313277   0.847478  -4.638212   0.715889
   42  C  2  X    0.015677   0.143841  -1.169406  -0.056357   0.528879
   43  C  2  Y    0.507537   0.039308  -0.065894  -0.240883  -0.059421
   44  C  2  Z   -0.228842  -0.125111  -0.138927   0.141429  -0.084951
   45  C  2 XX    0.040527   0.222178   0.071451  -0.141251  -0.126980
   46  C  2 YY    0.513649   1.358731   0.148353   0.101369  -0.046277
   47  C  2 ZZ   -0.554176  -1.580910  -0.219804   0.039882   0.173257
   48  C  2 XY    0.010135  -0.017189  -0.664495  -0.038260   0.953326
   49  C  2 XZ    0.008101  -0.193364   1.033952   0.101155   0.260275
   50  C  2 YZ   -0.381731  -0.828516  -0.038986  -0.351937   0.266834
   51  H  3  S   -0.093763   0.182630   0.036118   0.131391   0.064172
   52  H  3  S    1.207269  -3.154759  -0.813195   6.408827  -0.161492
   53  H  3  X    0.000508   0.001093  -0.017102  -0.002183   0.021661
   54  H  3  Y   -0.018874   0.012997   0.000868   0.029347   0.003362
   55  H  3  Z   -0.020701   0.024940   0.005244   0.003656   0.010461
   56  H  3  S   -0.035600  -0.200446  -0.032492   0.886762  -0.001467
   57  H  3  X   -0.009279  -0.037871   0.740641   0.163267  -1.363426
   58  H  3  Y   -0.419184  -0.191460   0.143981  -3.217153   0.030645
   59  H  3  Z   -0.090574   1.452036   0.191540  -0.991362  -0.595712
   60  H  4  S   -0.043807  -0.079719  -0.023025   0.014177  -0.083486
   61  H  4  S    6.180132   9.179115   2.231590  -5.654090   2.156706
   62  H  4  X   -0.000036  -0.002459   0.016698   0.001211  -0.004763
   63  H  4  Y    0.007359  -0.017965  -0.002923   0.003901   0.002082
   64  H  4  Z   -0.006048  -0.012315   0.000332  -0.000382   0.014728
   65  H  4  S    1.416624   1.862482   0.472080  -0.867071   0.248680
   66  H  4  X   -0.015919   0.240469  -1.278135  -0.057333  -0.147885
   67  H  4  Y    1.123666   2.953013   0.648581  -1.567876   0.458610
   68  H  4  Z    1.834525   0.114962   0.074471  -1.204987   0.040905
   69  H  5  S   -0.178350   0.089013   0.017664   0.112452   0.035442
   70  H  5  S    9.075935  -2.559884  -0.758910   4.613969  -0.818956
   71  H  5  X    0.000241  -0.002753   0.007849  -0.000105   0.012904
   72  H  5  Y   -0.006989  -0.005536  -0.001100   0.022696   0.003607
   73  H  5  Z    0.007260  -0.003913  -0.001851   0.002825  -0.004642
   74  H  5  S    1.539451  -0.534334  -0.207410   0.807661  -0.117086
   75  H  5  X    0.017947   0.134426  -0.425515   0.041384  -1.108831
   76  H  5  Y   -2.092744   1.479304   0.364928  -2.527603   0.187786
   77  H  5  Z    1.145623   0.969883   0.043354   1.420846  -0.061570

                     36         37         38         39         40
                    0.4875     0.4930     0.5052     0.5566     0.5628
                     A          A          A          A          A   
    1  C  1  S    0.011879   0.104243  -0.025640   0.077022   0.017417
    2  C  1  S   -0.102952  -0.004191  -0.028904   0.023619   0.003268
    3  C  1  S   -1.670096  -8.271263   4.353014  -8.262373  -1.698373
    4  C  1  X    0.024711  -0.004110   0.002114   0.001895  -0.072212
    5  C  1  Y    0.166353   0.004945  -0.108916  -0.060133  -0.007139
    6  C  1  Z   -0.233415   0.326913  -0.090677  -0.138552  -0.034465
    7  C  1  X    0.244705  -0.006346   0.154662   0.231577  -1.351917
    8  C  1  Y   -0.252391  -0.951577  -7.078158  -0.116801  -0.126666
    9  C  1  Z   -2.727748  -2.602476   1.425723  -1.522939  -0.751898
   10  C  1 XX   -0.010774   0.008673  -0.006417   0.026925   0.005369
   11  C  1 YY    0.013285   0.031445  -0.008872  -0.007979  -0.001509
   12  C  1 ZZ   -0.002510  -0.040118   0.015289  -0.018947  -0.003860
   13  C  1 XY    0.001713   0.000165   0.000478   0.001018  -0.002574
   14  C  1 XZ    0.006864   0.000738   0.001391  -0.011145   0.054590
   15  C  1 YZ    0.053186  -0.002585   0.013731  -0.027905  -0.003684
   16  C  1  S    4.649729  -5.104865  -4.794384 -14.357529  -3.494316
   17  C  1  X   -0.004693  -0.009252   0.020562   0.025383  -0.226628
   18  C  1  Y   -0.089351  -0.579340  -1.874408   0.890653   0.214430
   19  C  1  Z    0.414790  -0.201262  -0.983851  -4.736025  -1.156399
   20  C  1 XX   -0.322762   0.307923   0.556298  -0.061732   0.081506
   21  C  1 YY    0.504095   2.645464  -0.677167  -1.794071  -0.284561
   22  C  1 ZZ   -0.181333  -2.953388   0.120870   1.855803   0.203054
   23  C  1 XY    0.071399  -0.002690   0.081191   0.281966  -1.590305
   24  C  1 XZ   -0.400542  -0.036729  -0.115205   0.381475  -2.128716
   25  C  1 YZ    0.718995   0.380346   0.272883   0.215521   0.066660
   26  C  2  S   -0.003514  -0.087949  -0.030530  -0.049993  -0.013251
   27  C  2  S    0.090440  -0.082546  -0.008363   0.132241   0.025362
   28  C  2  S    2.011146  10.076008   2.729807   2.818576   1.000359
   29  C  2  X    0.050990   0.003755   0.003750  -0.072573   0.310051
   30  C  2  Y    0.070013  -0.020579  -0.016971   0.000887   0.001377
   31  C  2  Z   -0.192524   0.177563  -0.003788  -0.076926  -0.020860
   32  C  2  X    0.393578  -0.020847   0.001729  -0.267112   1.403682
   33  C  2  Y   -0.611544   1.105464   3.265747   0.584742   0.037918
   34  C  2  Z   -3.012827  -3.008321   2.568188  -1.397366  -0.681784
   35  C  2 XX    0.011430  -0.049521   0.003383   0.010411   0.001435
   36  C  2 YY   -0.013313   0.004513   0.006617  -0.026967  -0.005797
   37  C  2 ZZ    0.001883   0.045008  -0.010000   0.016556   0.004361
   38  C  2 XY    0.001656  -0.001348  -0.000689   0.006856  -0.026752
   39  C  2 XZ   -0.001046  -0.000338  -0.001356  -0.004226   0.032840
   40  C  2 YZ   -0.030522   0.006998   0.009404  -0.014313  -0.001946
   41  C  2  S   -4.512551   5.337679   5.790373  15.314497   3.741193
   42  C  2  X    0.119095  -0.001978  -0.015893  -0.042193   0.389032
   43  C  2  Y   -0.253977   0.460526   0.956716  -1.150596  -0.272224
   44  C  2  Z    0.393237  -0.717458  -0.712689  -3.711210  -0.956118
   45  C  2 XX    0.226425  -0.334178  -0.024858  -0.365878  -0.094600
   46  C  2 YY    0.293632  -0.524879   1.484945  -0.926254  -0.195317
   47  C  2 ZZ   -0.520057   0.859057  -1.460086   1.292132   0.289917
   48  C  2 XY    0.237790   0.011918   0.032424   0.021695  -0.052564
   49  C  2 XZ    0.216135  -0.017806   0.093274   0.303020  -1.876797
   50  C  2 YZ   -0.923667   0.228793  -0.342575   1.041218   0.184906
   51  H  3  S   -0.176108  -0.026937   0.044686  -0.152174  -0.023352
   52  H  3  S    2.631981  -3.907552  -7.331328  -2.981664  -0.443866
   53  H  3  X    0.005829   0.000751   0.001234  -0.000258   0.001667
[...]
 II,JST,KST,LST =  2  1  1  1 NREC =         1 INTLOC =    1
 II,JST,KST,LST =  3  1  1  1 NREC =         1 INTLOC =    1
 II,JST,KST,LST =  4  1  1  1 NREC =         1 INTLOC =    1
 II,JST,KST,LST =  5  1  1  1 NREC =         1 INTLOC =    1
 II,JST,KST,LST =  6  1  1  1 NREC =         1 INTLOC =    1
 II,JST,KST,LST =  7  1  1  1 NREC =         1 INTLOC =   16
 II,JST,KST,LST =  8  1  1  1 NREC =         1 INTLOC =   16
 II,JST,KST,LST =  9  1  1  1 NREC =         1 INTLOC =   16
 II,JST,KST,LST = 10  1  1  1 NREC =         1 INTLOC = 1237
 II,JST,KST,LST = 11  1  1  1 NREC =         1 INTLOC = 1237
 II,JST,KST,LST = 12  1  1  1 NREC =         1 INTLOC = 1237
 II,JST,KST,LST = 13  1  1  1 NREC =         1 INTLOC = 1237
 II,JST,KST,LST = 14  1  1  1 NREC =         1 INTLOC = 1237
 II,JST,KST,LST = 15  1  1  1 NREC =         1 INTLOC = 3757
 II,JST,KST,LST = 16  1  1  1 NREC =         1 INTLOC =13642
 II,JST,KST,LST = 17  1  1  1 NREC =         1 INTLOC =13642
 II,JST,KST,LST = 18  1  1  1 NREC =         1 INTLOC =13642
 II,JST,KST,LST = 19  1  1  1 NREC =         1 INTLOC =13642
 II,JST,KST,LST = 20  1  1  1 NREC =         2 INTLOC = 2650
 II,JST,KST,LST = 21  1  1  1 NREC =         3 INTLOC = 7840
 II,JST,KST,LST = 22  1  1  1 NREC =         5 INTLOC =12142
 II,JST,KST,LST = 23  1  1  1 NREC =         5 INTLOC =12142
 II,JST,KST,LST = 24  1  1  1 NREC =         6 INTLOC =12967
 II,JST,KST,LST = 25  1  1  1 NREC =         7 INTLOC = 1835
 II,JST,KST,LST = 26  1  1  1 NREC =         7 INTLOC =14879
 II,JST,KST,LST = 27  1  1  1 NREC =        10 INTLOC = 8015
 II,JST,KST,LST = 28  1  1  1 NREC =        10 INTLOC = 8015
 II,JST,KST,LST = 29  1  1  1 NREC =        13 INTLOC =  719
 II,JST,KST,LST = 30  1  1  1 NREC =        13 INTLOC = 6270
 II,JST,KST,LST = 31  1  1  1 NREC =        14 INTLOC = 6636
 II,JST,KST,LST = 32  1  1  1 NREC =        15 INTLOC =12947
 II,JST,KST,LST = 33  1  1  1 NREC =        16 INTLOC = 3402
 II,JST,KST,LST = 34  1  1  1 NREC =        17 INTLOC =13177
 II,JST,KST,LST = 35  1  1  1 NREC =        18 INTLOC =14775
 II,JST,KST,LST = 36  1  1  1 NREC =        19 INTLOC =11908
 II,JST,KST,LST = 37  1  1  1 NREC =        20 INTLOC = 7780
 II,JST,KST,LST = 38  1  1  1 NREC =        22 INTLOC =14755
 II,JST,KST,LST = 39  1  1  1 NREC =        28 INTLOC =13687
 II,JST,KST,LST = 40  1  1  1 NREC =        40 INTLOC = 1614
 II,JST,KST,LST = 41  1  1  1 NREC =        40 INTLOC = 1614
 II,JST,KST,LST = 42  1  1  1 NREC =        40 INTLOC = 1614
 II,JST,KST,LST = 43  1  1  1 NREC =        48 INTLOC = 2210
 II,JST,KST,LST = 44  1  1  1 NREC =        51 INTLOC = 3204
 II,JST,KST,LST = 45  1  1  1 NREC =        52 INTLOC =13403
 II,JST,KST,LST = 46  1  1  1 NREC =        57 INTLOC =11076
 II,JST,KST,LST = 47  1  1  1 NREC =        65 INTLOC = 5452
 II,JST,KST,LST = 48  1  1  1 NREC =        67 INTLOC =14230
 II,JST,KST,LST = 49  1  1  1 NREC =        83 INTLOC = 1984
 II,JST,KST,LST = 50  1  1  1 NREC =        91 INTLOC =11368
 II,JST,KST,LST = 51  1  1  1 NREC =       104 INTLOC = 7036
 II,JST,KST,LST = 52  1  1  1 NREC =       134 INTLOC = 7238
 II,JST,KST,LST = 53  1  1  1 NREC =       134 INTLOC = 7238
 II,JST,KST,LST = 54  1  1  1 NREC =       142 INTLOC = 3620
 II,JST,KST,LST = 55  1  1  1 NREC =       159 INTLOC = 7413
 II,JST,KST,LST = 56  1  1  1 NREC =       160 INTLOC =13232
 II,JST,KST,LST = 57  1  1  1 NREC =       191 INTLOC = 7383
 II,JST,KST,LST = 58  1  1  1 NREC =       191 INTLOC = 7383
 II,JST,KST,LST = 59  1  1  1 NREC =       202 INTLOC = 4729
 II,JST,KST,LST = 60  1  1  1 NREC =       211 INTLOC =12949
 II,JST,KST,LST = 61  1  1  1 NREC =       217 INTLOC = 5447
 II,JST,KST,LST = 62  1  1  1 NREC =       233 INTLOC =13085
 II,JST,KST,LST = 63  1  1  1 NREC =       245 INTLOC = 8107
 II,JST,KST,LST = 64  1  1  1 NREC =       257 INTLOC = 9705
 II,JST,KST,LST = 65  1  1  1 NREC =       267 INTLOC = 2583
 II,JST,KST,LST = 66  1  1  1 NREC =       272 INTLOC = 2329
 SCHWARZ INEQUALITY TEST SKIPPED       36092 INTEGRAL BLOCKS.
 TOTAL NUMBER OF NONZERO TWO-ELECTRON INTEGRALS =            67087939
       4477 INTEGRAL RECORDS WERE STORED ON DISK FILE  8.
  ...... END OF TWO-ELECTRON INTEGRALS .....
 CPU     0: STEP CPU TIME=     0.26 TOTAL CPU TIME=         22.9 (      0.4 MIN)
 TOTAL WALL CLOCK TIME=         23.3 SECONDS, CPU UTILIZATION IS    98.29%

          ---------------------------------------------
          MONOMER ELECTROSTATIC INTERACTION (OWN BASIS)
          ---------------------------------------------

          -------------
          GUESS OPTIONS
          -------------
          GUESS =MOSAVED           NORB  =       0          NORDER=       0
          MIX   =       F          PRTMO =       F          PUNMO =       F
          TOLZ  = 1.0E-08          TOLE  = 1.0E-05
          SYMDEN=       F          PURIFY=       F

 INITIAL GUESS ORBITALS GENERATED BY MOSAVED  ROUTINE.

 STATISTICS FOR GENERATION OF SYMMETRY ORBITAL -Q- MATRIX
 NUMBER OF CARTESIAN ATOMIC ORBITALS=        154
 NUMBER OF SPHERICAL CONTAMINANTS DROPPED=     8
 NUMBER OF LINEARLY DEPENDENT MOS DROPPED=     0
 TOTAL NUMBER OF MOS IN VARIATION SPACE=     146
 ...... END OF INITIAL ORBITAL SELECTION ......
 CPU     0: STEP CPU TIME=     0.01 TOTAL CPU TIME=         22.9 (      0.4 MIN)
 TOTAL WALL CLOCK TIME=         23.3 SECONDS, CPU UTILIZATION IS    98.29%

          ---------------------------
                  UHF SCF CALCULATION
          ---------------------------

 FINAL UHF ENERGY IS     -155.3011018750 AFTER   1 ITERATIONS
 ...... END OF UHF CALCULATION ......
 CPU     0: STEP CPU TIME=     0.08 TOTAL CPU TIME=         23.0 (      0.4 MIN)
 TOTAL WALL CLOCK TIME=         23.4 SECONDS, CPU UTILIZATION IS    98.27%

          -------------
          GUESS OPTIONS
          -------------
          GUESS =MOSAVED           NORB  =       0          NORDER=       0
          MIX   =       F          PRTMO =       F          PUNMO =       F
          TOLZ  = 1.0E-08          TOLE  = 1.0E-05
          SYMDEN=       F          PURIFY=       F

 INITIAL GUESS ORBITALS GENERATED BY MOSAVED  ROUTINE.

 STATISTICS FOR GENERATION OF SYMMETRY ORBITAL -Q- MATRIX
 NUMBER OF CARTESIAN ATOMIC ORBITALS=        154
 NUMBER OF SPHERICAL CONTAMINANTS DROPPED=     8
 NUMBER OF LINEARLY DEPENDENT MOS DROPPED=     0
 TOTAL NUMBER OF MOS IN VARIATION SPACE=     146
 ...... END OF INITIAL ORBITAL SELECTION ......
 CPU     0: STEP CPU TIME=     0.01 TOTAL CPU TIME=         23.0 (      0.4 MIN)
 TOTAL WALL CLOCK TIME=         23.4 SECONDS, CPU UTILIZATION IS    98.27%

          ---------------------------
                  UHF SCF CALCULATION
          ---------------------------

 DIRECT SCF CALCULATION, SCHWRZ=T   FDIFF=T
 SCHWARZ INEQUALITY OVERHEAD:     11935 INTEGRALS, T=        0.00

 FINAL UHF ENERGY IS     -331.9162507819 AFTER   1 ITERATIONS
 ...... END OF UHF CALCULATION ......
 CPU     0: STEP CPU TIME=     0.27 TOTAL CPU TIME=         23.2 (      0.4 MIN)
 TOTAL WALL CLOCK TIME=         23.7 SECONDS, CPU UTILIZATION IS    98.23%

 XEDA STEP ENERGY SUMMATION
 ETOT =       -155.30110188     ENUC =        103.16478392
 EEXCH=        -22.94672241

          --------------------------------------------------
          MONOMER EXCHANGE-REPULSION INTERACTION (OWN BASIS)
          --------------------------------------------------

          -------------
          GUESS OPTIONS
          -------------
          GUESS =MOSAVED           NORB  =       0          NORDER=       0
          MIX   =       F          PRTMO =       F          PUNMO =       F
          TOLZ  = 1.0E-08          TOLE  = 1.0E-05
          SYMDEN=       F          PURIFY=       F

 INITIAL GUESS ORBITALS GENERATED BY MOSAVED  ROUTINE.

 STATISTICS FOR GENERATION OF SYMMETRY ORBITAL -Q- MATRIX
 NUMBER OF CARTESIAN ATOMIC ORBITALS=        154
 NUMBER OF SPHERICAL CONTAMINANTS DROPPED=     8
 NUMBER OF LINEARLY DEPENDENT MOS DROPPED=     0
 TOTAL NUMBER OF MOS IN VARIATION SPACE=     146
 ...... END OF INITIAL ORBITAL SELECTION ......
 CPU     0: STEP CPU TIME=     0.01 TOTAL CPU TIME=         23.2 (      0.4 MIN)
 TOTAL WALL CLOCK TIME=         23.7 SECONDS, CPU UTILIZATION IS    98.23%

          ---------------------------
                  UHF SCF CALCULATION
          ---------------------------

 FINAL UHF ENERGY IS     -154.6278400593 AFTER   1 ITERATIONS
 ...... END OF UHF CALCULATION ......
 CPU     0: STEP CPU TIME=     0.08 TOTAL CPU TIME=         23.3 (      0.4 MIN)
 TOTAL WALL CLOCK TIME=         23.7 SECONDS, CPU UTILIZATION IS    98.22%

 XEDA STEP ENERGY SUMMATION
 ETOT =       -154.62784006     ENUC =        103.16478392

          ---------------------------------------------
          MONOMER ELECTROSTATIC INTERACTION (ALL BASIS)
          ---------------------------------------------

          -------------
          GUESS OPTIONS
          -------------
          GUESS =MOSAVED           NORB  =       0          NORDER=       0
          MIX   =       F          PRTMO =       F          PUNMO =       F
          TOLZ  = 1.0E-08          TOLE  = 1.0E-05
          SYMDEN=       F          PURIFY=       F

 INITIAL GUESS ORBITALS GENERATED BY MOSAVED  ROUTINE.

 STATISTICS FOR GENERATION OF SYMMETRY ORBITAL -Q- MATRIX
 NUMBER OF CARTESIAN ATOMIC ORBITALS=        154
 NUMBER OF SPHERICAL CONTAMINANTS DROPPED=     8
 NUMBER OF LINEARLY DEPENDENT MOS DROPPED=     0
 TOTAL NUMBER OF MOS IN VARIATION SPACE=     146
 ...... END OF INITIAL ORBITAL SELECTION ......
 CPU     0: STEP CPU TIME=     0.01 TOTAL CPU TIME=         23.3 (      0.4 MIN)
 TOTAL WALL CLOCK TIME=         23.8 SECONDS, CPU UTILIZATION IS    98.22%

          ---------------------------
                  UHF SCF CALCULATION
          ---------------------------

 FINAL UHF ENERGY IS     -155.3079772528 AFTER   1 ITERATIONS
 ...... END OF UHF CALCULATION ......
 CPU     0: STEP CPU TIME=     0.08 TOTAL CPU TIME=         23.4 (      0.4 MIN)
 TOTAL WALL CLOCK TIME=         23.8 SECONDS, CPU UTILIZATION IS    98.20%

          -------------
          GUESS OPTIONS
          -------------
          GUESS =MOSAVED           NORB  =       0          NORDER=       0
          MIX   =       F          PRTMO =       F          PUNMO =       F
          TOLZ  = 1.0E-08          TOLE  = 1.0E-05
          SYMDEN=       F          PURIFY=       F

 INITIAL GUESS ORBITALS GENERATED BY MOSAVED  ROUTINE.

 STATISTICS FOR GENERATION OF SYMMETRY ORBITAL -Q- MATRIX
 NUMBER OF CARTESIAN ATOMIC ORBITALS=        154
 NUMBER OF SPHERICAL CONTAMINANTS DROPPED=     8
 NUMBER OF LINEARLY DEPENDENT MOS DROPPED=     0
 TOTAL NUMBER OF MOS IN VARIATION SPACE=     146
 ...... END OF INITIAL ORBITAL SELECTION ......
 CPU     0: STEP CPU TIME=     0.01 TOTAL CPU TIME=         23.4 (      0.4 MIN)
 TOTAL WALL CLOCK TIME=         23.8 SECONDS, CPU UTILIZATION IS    98.20%

          ---------------------------
                  UHF SCF CALCULATION
          ---------------------------

 DIRECT SCF CALCULATION, SCHWRZ=T   FDIFF=T
 SCHWARZ INEQUALITY OVERHEAD:     11935 INTEGRALS, T=        0.00

 FINAL UHF ENERGY IS     -331.9389975100 AFTER   1 ITERATIONS
 ...... END OF UHF CALCULATION ......
 CPU     0: STEP CPU TIME=     0.27 TOTAL CPU TIME=         23.7 (      0.4 MIN)
 TOTAL WALL CLOCK TIME=         24.1 SECONDS, CPU UTILIZATION IS    98.19%

 XEDA STEP ENERGY SUMMATION
 ETOT =       -155.30797725     ENUC =        103.16478392
 EEXCH=        -22.94747044

          --------------------------------------------------
          MONOMER EXCHANGE-REPULSION INTERACTION (ALL BASIS)
          --------------------------------------------------

          -------------
          GUESS OPTIONS
          -------------
          GUESS =MOSAVED           NORB  =       0          NORDER=       0
          MIX   =       F          PRTMO =       F          PUNMO =       F
          TOLZ  = 1.0E-08          TOLE  = 1.0E-05
          SYMDEN=       F          PURIFY=       F

 INITIAL GUESS ORBITALS GENERATED BY MOSAVED  ROUTINE.

 STATISTICS FOR GENERATION OF SYMMETRY ORBITAL -Q- MATRIX
 NUMBER OF CARTESIAN ATOMIC ORBITALS=        154
 NUMBER OF SPHERICAL CONTAMINANTS DROPPED=     8
 NUMBER OF LINEARLY DEPENDENT MOS DROPPED=     0
 TOTAL NUMBER OF MOS IN VARIATION SPACE=     146
 ...... END OF INITIAL ORBITAL SELECTION ......
 CPU     0: STEP CPU TIME=     0.01 TOTAL CPU TIME=         23.7 (      0.4 MIN)
 TOTAL WALL CLOCK TIME=         24.1 SECONDS, CPU UTILIZATION IS    98.20%

          ---------------------------
                  UHF SCF CALCULATION
          ---------------------------

 FINAL UHF ENERGY IS     -154.6327067713 AFTER   1 ITERATIONS
 ...... END OF UHF CALCULATION ......
 CPU     0: STEP CPU TIME=     0.08 TOTAL CPU TIME=         23.8 (      0.4 MIN)
 TOTAL WALL CLOCK TIME=         24.2 SECONDS, CPU UTILIZATION IS    98.18%

 XEDA STEP ENERGY SUMMATION
 ETOT =       -154.63270677     ENUC =        103.16478392

          --------------------------------
          RESULTS OF INTERACTION ANALYSIS
          --------------------------------

     ENERGY TERMS
     T   ELECTRON KINETIC AND COULOMB POTENTIAL
     X   E-E EXCHANGE COMBINE WITH DIAGNANAL VALUE
     N   NUCLEUS-NUCLEUS REPULSION ENERGY

 --------------
 MONOMER ENERGY
 --------------

 MONOMER    1

                   OWN BASIS           ALL BASIS

 T              -93.94831937        -93.94866983
 X              -11.31355717        -11.31377742
 N               27.88422468         27.88422468
 EC              -0.47433586         -0.47481912
 E              -77.85198772        -77.85304169

 MONOMER    2

                   OWN BASIS           ALL BASIS

 T              -93.94829139        -93.94864419
 X              -11.31356109        -11.31377485
 N               27.88419917         27.88419917
 EC              -0.47433002         -0.47483417
 E              -77.85198334        -77.85305404

 ------------------------------------------------------------
 SUPER MOLECULE ENERGY  USING NON-ANTISYMMETRIC WAVEFUNCTION
 (ELECTROSTATIC ENERGY: T N CHANGE)
 ------------------------------------------------------------

              FROM OWN BASIS      FROM ALL BASIS
 T             -235.51916338       -235.52529072
 X              -22.62711826        -22.62755227
 N              103.16478392        103.16478392
 E             -154.98149772       -154.98805908

 ----------------------------------------------------------------------
 SUPER MOLECULE ENERGY  USING ANTISYMMETRIC NONORTHONORMAL WAVEFUNCTION
 (EXCHANGE ENERGY: ONLY X CHANGES)
 ----------------------------------------------------------------------

              FROM OWN BASIS      FROM ALL BASIS
 T             -235.51916338       -235.52529072
 X              -22.94672241        -22.94747044
 N              103.16478392        103.16478392
 E             -155.30110188       -155.30797725

 -----------------------------------------------------------------------
 SUPER MOLECULE ENERGY  USING ANTISYMMETRIC AND ORTHONORMAL WAVEFUNCTION
 (REPULSION ENERGY: T X CHANGE)
 -----------------------------------------------------------------------

              FROM OWN BASIS      FROM ALL BASIS
 T+X           -257.79262397       -257.79749069
 N              103.16478392        103.16478392
 E             -154.62784006       -154.63270677

 ---------------------------------------------
 SUPER MOLECULE ENERGY  USING SCF WAVEFUNCTION
 (POLARIZATION ENERGY: T X CHANGE)
 ---------------------------------------------
 T+X           -258.07388456
 N              103.16478392
 EC              -0.98500802
 E             -155.89410867


                   *******************************
                   SUMMARY OF INTERACTION ENERGIES
                     XEDA IN XIAMEN UNIVERSITY    
                    - ZHEN TANG AND PEIFENG SU -  
                   *******************************


 -------------
 OWN BASIS SET                                       HARTREE          KCAL/MOL
 -------------
 ELECTROSTATIC ENERGY                  ES=         -0.226193           -141.94
 EXCHANGE ENERGY                       EX=         -0.319604           -200.55
 REPULSION ENERGY                     REP=          0.673262            422.48
 POLARIZATION ENERGY                  POL=         -0.281261           -176.49
 ELECTRON CORRELATION                CORR=         -0.036342            -22.81
 TOTAL INTERACTION ENERGY               E=         -0.190138           -119.31
  

 -------------
 ALL BASIS SET                                       HARTREE          KCAL/MOL
 -------------
 ELECTROSTATIC ENERGY                  ES=         -0.231617           -145.34
 EXCHANGE ENERGY                       EX=         -0.319918           -200.75
 REPULSION ENERGY                     REP=          0.675270            423.74
 POLARIZATION ENERGY                  POL=         -0.276394           -173.44
 ELECTRON CORRELATION                CORR=         -0.035355            -22.19
 TOTAL INTERACTION ENERGY               E=         -0.188013           -117.98
  

                     ***************************
                     END OF INTERACTION ANALYSIS
                     ***************************

              1301896  WORDS OF DYNAMIC MEMORY USED
 EXECUTION OF GAMESS TERMINATED NORMALLY 14:31:20 25-DEC-2023    
 DDI: 263640 bytes (0.3 MB / 0 MWords) used by master data server.

 ----------------------------------------
 CPU timing information for all processes
 ========================================
 0: 23.83 + 0.695 = 23.779
 1: 22.875 + 0.557 = 23.432
 2: 22.875 + 0.591 = 23.466
 3: 22.867 + 0.543 = 23.411
 4: 22.826 + 0.644 = 23.471
 5: 22.878 + 0.520 = 23.399
 6: 22.801 + 0.571 = 23.372
 7: 22.781 + 0.571 = 23.353
 8: 22.836 + 0.635 = 23.471
 9: 22.855 + 0.539 = 23.395
 10: 22.784 + 0.602 = 23.386
 11: 22.787 + 0.538 = 23.325
 12: 22.823 + 0.587 = 23.411
 13: 22.821 + 0.522 = 23.344
 14: 22.877 + 0.519 = 23.397
 15: 22.770 + 0.543 = 23.314
 ----------------------------------------
 ddikick.x: exited gracefully.
----- accounting info -----
Files used on the master node w014 were:
-rw-r--r-- 1 xacs0647 10000  2703863 Dec 25 14:31 /job_dir/15_1685738/15.dat
-rw-r--r-- 1 xacs0647 10000      243 Dec 25 14:31 /job_dir/15_1685738/15.err
-rw-r--r-- 1 xacs0647 10000      837 Dec 25 14:30 /job_dir/15_1685738/15.F05
-rw-r--r-- 1 xacs0647 10000 52024624 Dec 25 14:31 /job_dir/15_1685738/15.F08
-rw-r--r-- 1 xacs0647 10000 46444128 Dec 25 14:31 /job_dir/15_1685738/15.F08.001
-rw-r--r-- 1 xacs0647 10000 53284736 Dec 25 14:31 /job_dir/15_1685738/15.F08.002
-rw-r--r-- 1 xacs0647 10000 48604320 Dec 25 14:31 /job_dir/15_1685738/15.F08.003
-rw-r--r-- 1 xacs0647 10000 46264112 Dec 25 14:31 /job_dir/15_1685738/15.F08.004
-rw-r--r-- 1 xacs0647 10000 53644768 Dec 25 14:31 /job_dir/15_1685738/15.F08.005
-rw-r--r-- 1 xacs0647 10000 45724064 Dec 25 14:31 /job_dir/15_1685738/15.F08.006
-rw-r--r-- 1 xacs0647 10000 54724864 Dec 25 14:31 /job_dir/15_1685738/15.F08.007
-rw-r--r-- 1 xacs0647 10000 48784336 Dec 25 14:31 /job_dir/15_1685738/15.F08.008
-rw-r--r-- 1 xacs0647 10000 51844608 Dec 25 14:31 /job_dir/15_1685738/15.F08.009
-rw-r--r-- 1 xacs0647 10000 46984176 Dec 25 14:31 /job_dir/15_1685738/15.F08.010
-rw-r--r-- 1 xacs0647 10000 50584496 Dec 25 14:31 /job_dir/15_1685738/15.F08.011
-rw-r--r-- 1 xacs0647 10000 50584496 Dec 25 14:31 /job_dir/15_1685738/15.F08.012
-rw-r--r-- 1 xacs0647 10000 52384656 Dec 25 14:31 /job_dir/15_1685738/15.F08.013
-rw-r--r-- 1 xacs0647 10000 51844608 Dec 25 14:31 /job_dir/15_1685738/15.F08.014
-rw-r--r-- 1 xacs0647 10000 52204640 Dec 25 14:31 /job_dir/15_1685738/15.F08.015
-rw-r--r-- 1 xacs0647 10000  5758720 Dec 25 14:31 /job_dir/15_1685738/15.F10
-rw-r--r-- 1 xacs0647 10000      837 Dec 25 14:30 /job_dir/15_1685738/15.inp
-rw-r--r-- 1 xacs0647 10000  2403321 Dec 25 14:31 /job_dir/15_1685738/15.out
Mon Dec 25 14:31:23 CST 2023
0.097u 0.064s 0:27.43 0.5%	0+0k 0+40io 0pf+0w
