----- GAMESS execution script 'rungms' -----
This job is running on host w015
under operating system Linux at Mon Dec 25 14:30:56 CST 2023
Available scratch disk space (Kbyte units) at beginning of the job is
Filesystem              1K-blocks    Used Available Use% Mounted on
/dev/mapper/system-root 932514944 2654168 929860776   1% /
GAMESS temporary binary files will be written to /job_dir/16_1685739
GAMESS supplementary output files will be written to /job_dir/16_1685739
Copying input file ./16.inp to your run's scratch directory...
 
Assuming a single but multicore node.
 

 Distributed Data Interface kickoff program.
 Initiating 16 compute processes on 1 nodes to run the following command:
 /share/apps/xeda-apps/xeda-td/gamess.00.x 16 

          *******************************************************
          *                                                     *
          *          GAMESS VERSION = 30 SEP 2020 (R2)          *
          *                                                     *
          *              doi.org/10.1063/5.0005188              *
          *                                                     *
          **************** 64 BIT LINUX VERSION *****************

  GAMESS HAS BEEN MADE POSSIBLE WITH IMPORTANT CONTRIBUTIONS FROM
  THE FOLLOWING INDIVIDUALS (IN ALPHABETICAL ORDER):

     IVANA ADAMOVIC, CHRISTINE AIKENS, TOMOKO AKAMA,
     YURI ALEXEEV, YURIKO AOKI, POOJA ARORA, TOSHIO ASADA,
     ANDREY ASADCHEV, KIM K. BALDRIDGE, PRADIPTA BANDYOPADHYAY,
     MARIA BARYSZ, ROB BELL, JONATHAN BENTZ, COLLEEN BERTONI,
     JERRY A. BOATZ, BRETT BODE, KURT BRORSEN, KURT R. BRORSEN,
     LAIMUTIS BYTAUTAS, CALEB CARLIN, LAURA CARRINGTON,
     GALINA CHABAN, BENOIT CHAMPAGNE, WEI CHEN, MAHITO CHIBA,
     DAN CHIPMAN, CHEOL HO CHOI, TANNER CULPITT,
     DIPAYAN DATTA, PAUL DAY, ALBERT DEFUSCO,
     NUWAN DESILVA, J. EMILIANO DEUSTUA,
     TIM DUDLEY, MICHEL DUPUIS, STEVEN T. ELBERT,
     DMITRI FEDOROV, ALEX FINDLATER, GRAHAM FLETCHER,
     MARK FREITAG, CHRISTIAN FRIEDL, DAVID GARMER,
     IGOR S. GERASIMOV, KURT GLAESEMANN, MARK S. GORDON,
     JEFFREY GOUR, FENG LONG GU, EMILIE B. GUIDEZ,
     ANASTASIA GUNINA, SHARON HAMMES-SCHIFFER, MASATAKE HARUTA,
     KIMIHIKO HIRAO, YASUHIRO IKABATA, TZVETELIN IORDANOV,
     STEPHAN IRLE, KAZUYA ISHIMURA, JOE IVANIC, FRANK JENSEN,
     JAN H. JENSEN, VISVALDAS KAIRYS, MUNEAKI KAMIYA,
     MICHIO KATOUDA, NAOAKI KAWAKAMI, DAN KEMP, BERNARD KIRTMAN,
     KAZUO KITAURA, MARIUSZ KLOBUKOWSKI, MASATO KOBAYASHI,
     PRAKASHAN KORAMBATH, JACEK KORCHOWIEC, SHIRO KOSEKI,
     KAROL KOWALSKI, JIMMY KROMANN, STANISLAW KUCHARSKI,
     HENRY KURTZ, SAROM SOK LEANG, HUI LI, SHUHUA LI, WEI LI,
     JESSE LUTZ, ALEKSANDR O. LYKHIN, MARCIN MAKOWSKI,
     JOANI MATO, NIKITA MATSUNAGA, BENEDETTA MENNUCCI,
     GRANT MERRILL, NORIYUKI MINEZAWA, VLADIMIR MIRONOV,
     EISAKU MIYOSHI, JOHN A. MONTGOMERY JR., HIROTOSHI MORI,
     JONATHAN MULLIN, MONIKA MUSIAL, SHIGERU NAGASE,
     TAKESHI NAGATA, HIROMI NAKAI, TAKAHITO NAKAJIMA,
     YUYA NAKAJIMA, HARUYUKI NAKANO, HIROYA NAKATA, SEAN NEDD,
     HEATHER NETZLOFF, KIET A. NGUYEN, YOSHIO NISHIMOTO,
     BOSILJKA NJEGIC, RYAN OLSON, MIKE PAK, ROBERTO PEVERATI,
     BUU PHAM, PIOTR PIECUCH, ANNA POMOGAEVA, DAVID POOLE,
     SPENCER PRUITT, OLIVIER QUINET, LUKE ROSKOP,
     KLAUS RUEDENBERG, ANDREW SAND, TOSAPORN SATTASATHUCHANA,
     NOZOMI SAWADA, MICHAEL W. SCHMIDT, PATRICK E. SCHNEIDER,
     JUNJI SEINO, PRACHI SHARMA, JUN SHEN, JIM SHOEMAKER,
     YINAN SHU, DEJUN SI, JONATHAN SKONE, LYUDMILA SLIPCHENKO,
     TONY SMITH, JIE SONG, MARK SPACKMAN, CASPER STEINMANN,
     WALT STEVENS, PEIFENG SU, SHUJUN SU, CHET SWALINA,
     TETSUYA TAKETSUGU, ZHEN TAO, NANDUN THELLAMUREGE
     SEIKEN TOKURA, JACOPO TOMASI, TSUGUKI TOUMA, TAKAO TSUNEDA,
     HIROAKI UMEDA, JORGE LUIS GALVEZ VALLEJO, YALI WANG,
     SIMON WEBB, AARON WEST, THERESA L. WINDUS, MARTA WLOCH,
     PENG XU, KIYOSHI YAGI, SUSUMU YANAGISAWA, YANG YANG,
     SOOHAENG YOO, TAKESHI YOSHIKAWA, FEDERICO ZAHARIEV,
     TOBY ZENG

  WHO ARE SUPPORTED BY THEIR INSTITUTION/UNIVERSITY/COMPANY/GROUP
  (IN ALPHABETICAL ORDER):

     EP ANALYTICS, FACULTES UNIVERSITAIRES NOTRE-DAME DE LA PAIX,
     INSTITUTE FOR MOLECULAR SCIENCE, IOWA STATE UNIVERSITY,
     JACKSON STATE UNIVERSITY, JOHANNES KEPLER UNIVERSITY LINZ,
     KYUSHU UNIVERSITY, MICHIGAN STATE UNIVERSITY,
     MIE UNIVERSITY, MOSCOW STATE UNIVERSITY,
     N. COPERNICUS UNIVERSITY, NAGOYA UNIVERSITY,
     NANJING UNIVERSITY, NAT. INST. OF ADVANCED INDUSTRIAL
     SCIENCE AND TECHNOLOGY, NATIONAL INST. OF STANDARDS AND
     TECHNOLOGY, NESMEYANOV INSTITUTE OF ORGANOELEMENT COMPOUNDS
     OF RUSSIAN ACADEMY OF SCIENCES, OSAKA PREFECTURE UNIVERSITY,
     PENNSYLVANIA STATE UNIVERSITY, TOKYO INSTITUTE OF TECHNOLOGY,
     UNIVERSITY OF AARHUS, UNIVERSITY OF ALBERTA,
     UNIVERSITY OF CALIFORNIA AT SANTA BARBARA,
     UNIVERSITY OF COPENHAGEN, UNIVERSITY OF IOWA,
     UNIVERSITY OF MEMPHIS, UNIVERSITY OF MINNESOTA,
     UNIVERSITY OF NEBRASKA, UNIVERSITY OF NEW ENGLAND,
     UNIVERSITY OF NOTRE DAME, UNIVERSITY OF PISA,
     UNIVERSITY OF SILESIA, UNIVERSITY OF TOKYO,
     UNIVERSITY OF ZURICH, WASEDA UNIVERSITY, YALE UNIVERSITY

  GAMESS SOFTWARE MANAGEMENT TEAM FOR THIS RELEASE:
     MARK S. GORDON (TEAM LEAD),
     BRETT BODE (SENIOR ADVISOR),
     GIUSEPPE BARCA,
     COLLEEN BERTONI,
     KRISTOPHER KEIPERT (ADVISOR),
     SAROM S. LEANG (DEVELOPMENT LEAD),
     BUU PHAM,
     JORGE LUIS GALVEZ VALLEJO (WEBSITE ADMINISTRATOR),
     PENG XU


 PARALLEL VERSION RUNNING ON       16 PROCESSORS IN        1 NODES.

 EXECUTION OF GAMESS BEGUN 14:30:56 25-DEC-2023    

            ECHO OF THE FIRST FEW INPUT CARDS -
 INPUT CARD> $CONTRL SCFTYP=UHF RUNTYP=EDA dfttyp=B3LYP ispher=1 icharg=0 mult=1 $END       
 INPUT CARD> $SYSTEM  mwords=150 memddi=150 $END                                            
 INPUT CARD> $BASIS gbasis=accd $END                                                        
 INPUT CARD> $LMOEDA MATOM(1)=5 5 MCHARG(1)=0 0 MMULT(1)=2 -2 edatyp=gks $end               
 INPUT CARD> $scf DIIS=.TRUE. ETHRSH=2.0 SWDIIS=0.005 $end                                  
 INPUT CARD> $data                                                                          
 INPUT CARD> EDA calculation with XEDA 1.0                                                  
 INPUT CARD> c1                                                                             
 INPUT CARD>C   6   -0.2716067524    0.8377103975   -1.4569169832                           
 INPUT CARD>C   6   -0.2716067524    0.8377103975   -0.1020187620                           
 INPUT CARD>H   1   -0.3254592174    1.7921666769    0.4373798978                           
 INPUT CARD>H   1   -0.2523946358   -0.0931774632   -2.0309565521                           
 INPUT CARD>H   1   -0.2849679891    1.7657553155   -2.0339081687                           
 INPUT CARD>C   6   -0.2716067524   -0.4005002531    0.7428368930                           
 INPUT CARD>C   6    0.7801242285   -1.2470124867    0.8570115072                           
 INPUT CARD>H   1    1.7121345426   -1.0817443477    0.3088448872                           
 INPUT CARD>H   1    0.7411565774   -2.1328065735    1.4959279254                           
 INPUT CARD>H   1   -1.1773496084   -0.5824900413    1.3355720369                           
 INPUT CARD> $end                                                                           
  150000000 WORDS OF MEMORY AVAILABLE

     BASIS OPTIONS
     -------------
     GBASIS=ACCD         IGAUSS=       0      POLAR=NONE    
     NDFUNC=       0     NFFUNC=       0     DIFFSP=       F
     NPFUNC=       0      DIFFS=       F     BASNAM=        


     RUN TITLE
     ---------
  EDA calculation with XEDA 1.0                                                  

 THE POINT GROUP OF THE MOLECULE IS C1      
 THE ORDER OF THE PRINCIPAL AXIS IS     0

 ATOM      ATOMIC                      COORDINATES (BOHR)
           CHARGE         X                   Y                   Z
 C           6.0    -0.5132623385        1.5830431083       -2.7531738851
 C           6.0    -0.5132623385        1.5830431083       -0.1927875058
 H           1.0    -0.6150287411        3.3867039437        0.8265281594
 H           1.0    -0.4769567024       -0.1760798737       -3.8379513764
 H           1.0    -0.5385114147        3.3367937077       -3.8435291230
 C           6.0    -0.5132623385       -0.7568357364        1.4037581813
 C           6.0     1.4742210282       -2.3565119031        1.6195169169
 H           1.0     3.2354651396       -2.0442004059        0.5836322095
 H           1.0     1.4005828453       -4.0304200087        2.8268938764
 H           1.0    -2.2248681516       -1.1007465686        2.5238651866

          INTERNUCLEAR DISTANCES (ANGS.)
          ------------------------------

                1 C          2 C          3 H          4 H          5 H     

   1 C       0.0000000    1.3548982 *  2.1218500 *  1.0938203 *  1.0928699 *
   2 C       1.3548982 *  0.0000000    1.0976510 *  2.1418969 *  2.1432785 *
   3 H       2.1218500 *  1.0976510 *  0.0000000    3.1068546    2.4717609 *
   4 H       1.0938203 *  2.1418969 *  3.1068546    0.0000000    1.8592205 *
   5 H       1.0928699 *  2.1432785 *  2.4717609 *  1.8592205 *  0.0000000  
   6 C       2.5242985 *  1.4989819 *  2.2144960 *  2.7908326 *  3.5218113  
   7 C       3.2873200    2.5242715 *  3.2611371    3.2768567    4.3091308  
   8 H       3.2768050    2.7907606 *  3.5252906    3.2111229    4.1934669  
   9 H       4.3091709    3.5218027    4.2028096    4.1935838    5.3583075  
  10 H       3.2611860    2.2144992 *  2.6779583 *  3.5254054    4.2028559  

                6 C          7 C          8 H          9 H         10 H     

   1 C       2.5242985 *  3.2873200    3.2768050    4.3091709    3.2611860  
   2 C       1.4989819 *  2.5242715 *  2.7907606 *  3.5218027    2.2144992 *
   3 H       2.2144960 *  3.2611371    3.5252906    4.2028096    2.6779583 *
   4 H       2.7908326 *  3.2768567    3.2111229    4.1935838    3.5254054  
   5 H       3.5218113    4.3091308    4.1934669    5.3583075    4.2028559  
   6 C       0.0000000    1.3549011 *  2.1418852 *  2.1432967 *  1.0976454 *
   7 C       1.3549011 *  0.0000000    1.0938206 *  1.0928695 *  2.1218657 *
   8 H       2.1418852 *  1.0938206 *  0.0000000    1.8592192 *  3.1068541  
   9 H       2.1432967 *  1.0928695 *  1.8592192 *  0.0000000    2.4718134 *
  10 H       1.0976454 *  2.1218657 *  3.1068541    2.4718134 *  0.0000000  

  * ... LESS THAN  3.000


     ATOMIC BASIS SET
     ----------------
 THE CONTRACTED PRIMITIVE FUNCTIONS HAVE BEEN UNNORMALIZED
 THE CONTRACTED BASIS FUNCTIONS ARE NOW NORMALIZED TO UNITY

  SHELL TYPE  PRIMITIVE        EXPONENT          CONTRACTION COEFFICIENT(S)

 C         

      1   S       1          6665.0000000    0.000691583963
      1   S       2          1000.0000000    0.005325796153
      1   S       3           228.0000000    0.027060721042
      1   S       4            64.7100000    0.101656846141
      1   S       5            21.0600000    0.274574823617
      1   S       6             7.4950000    0.448294318924
      1   S       7             2.7970000    0.284902610715
      1   S       8             0.5215000    0.015194859206

      2   S       9          6665.0000000   -0.000293269653
      2   S      10          1000.0000000   -0.002318035474
      2   S      11           228.0000000   -0.011499786039
      2   S      12            64.7100000   -0.046826727010
      2   S      13            21.0600000   -0.128466168750
      2   S      14             7.4950000   -0.301266272463
      2   S      15             2.7970000   -0.255630702330
      2   S      16             0.5215000    1.093793361012

      3   S      17             0.1596000    1.000000000000

      4   P      18             9.4390000    0.056979251590
      4   P      19             2.0020000    0.313207211501
      4   P      20             0.5456000    0.760376741738

      5   P      21             0.1517000    1.000000000000

      6   D      22             0.5500000    1.000000000000

      7   S      23             0.0469000    1.000000000000

      8   P      24             0.0404100    1.000000000000

      9   D      25             0.1510000    1.000000000000

 C         

     10   S      26          6665.0000000    0.000691583963
     10   S      27          1000.0000000    0.005325796153
     10   S      28           228.0000000    0.027060721042
     10   S      29            64.7100000    0.101656846141
     10   S      30            21.0600000    0.274574823617
     10   S      31             7.4950000    0.448294318924
     10   S      32             2.7970000    0.284902610715
     10   S      33             0.5215000    0.015194859206

     11   S      34          6665.0000000   -0.000293269653
     11   S      35          1000.0000000   -0.002318035474
     11   S      36           228.0000000   -0.011499786039
     11   S      37            64.7100000   -0.046826727010
     11   S      38            21.0600000   -0.128466168750
     11   S      39             7.4950000   -0.301266272463
     11   S      40             2.7970000   -0.255630702330
     11   S      41             0.5215000    1.093793361012

     12   S      42             0.1596000    1.000000000000

     13   P      43             9.4390000    0.056979251590
     13   P      44             2.0020000    0.313207211501
     13   P      45             0.5456000    0.760376741738

     14   P      46             0.1517000    1.000000000000

     15   D      47             0.5500000    1.000000000000

     16   S      48             0.0469000    1.000000000000

     17   P      49             0.0404100    1.000000000000

     18   D      50             0.1510000    1.000000000000

 H         

     19   S      51            13.0100000    0.033498726390
     19   S      52             1.9620000    0.234800801174
     19   S      53             0.4446000    0.813682957883

     20   S      54             0.1220000    1.000000000000

     21   P      55             0.7270000    1.000000000000

     22   S      56             0.0297400    1.000000000000

     23   P      57             0.1410000    1.000000000000

 H         

     24   S      58            13.0100000    0.033498726390
     24   S      59             1.9620000    0.234800801174
     24   S      60             0.4446000    0.813682957883

     25   S      61             0.1220000    1.000000000000

     26   P      62             0.7270000    1.000000000000

     27   S      63             0.0297400    1.000000000000

     28   P      64             0.1410000    1.000000000000

 H         

     29   S      65            13.0100000    0.033498726390
     29   S      66             1.9620000    0.234800801174
     29   S      67             0.4446000    0.813682957883

     30   S      68             0.1220000    1.000000000000

     31   P      69             0.7270000    1.000000000000

     32   S      70             0.0297400    1.000000000000

     33   P      71             0.1410000    1.000000000000

 C         

     34   S      72          6665.0000000    0.000691583963
     34   S      73          1000.0000000    0.005325796153
     34   S      74           228.0000000    0.027060721042
     34   S      75            64.7100000    0.101656846141
     34   S      76            21.0600000    0.274574823617
     34   S      77             7.4950000    0.448294318924
     34   S      78             2.7970000    0.284902610715
     34   S      79             0.5215000    0.015194859206

     35   S      80          6665.0000000   -0.000293269653
     35   S      81          1000.0000000   -0.002318035474
     35   S      82           228.0000000   -0.011499786039
     35   S      83            64.7100000   -0.046826727010
     35   S      84            21.0600000   -0.128466168750
     35   S      85             7.4950000   -0.301266272463
     35   S      86             2.7970000   -0.255630702330
     35   S      87             0.5215000    1.093793361012

     36   S      88             0.1596000    1.000000000000

     37   P      89             9.4390000    0.056979251590
     37   P      90             2.0020000    0.313207211501
     37   P      91             0.5456000    0.760376741738

     38   P      92             0.1517000    1.000000000000

     39   D      93             0.5500000    1.000000000000

     40   S      94             0.0469000    1.000000000000

     41   P      95             0.0404100    1.000000000000

     42   D      96             0.1510000    1.000000000000

 C         

     43   S      97          6665.0000000    0.000691583963
     43   S      98          1000.0000000    0.005325796153
     43   S      99           228.0000000    0.027060721042
     43   S     100            64.7100000    0.101656846141
     43   S     101            21.0600000    0.274574823617
     43   S     102             7.4950000    0.448294318924
     43   S     103             2.7970000    0.284902610715
     43   S     104             0.5215000    0.015194859206

     44   S     105          6665.0000000   -0.000293269653
     44   S     106          1000.0000000   -0.002318035474
     44   S     107           228.0000000   -0.011499786039
     44   S     108            64.7100000   -0.046826727010
     44   S     109            21.0600000   -0.128466168750
     44   S     110             7.4950000   -0.301266272463
     44   S     111             2.7970000   -0.255630702330
     44   S     112             0.5215000    1.093793361012

     45   S     113             0.1596000    1.000000000000

     46   P     114             9.4390000    0.056979251590
     46   P     115             2.0020000    0.313207211501
     46   P     116             0.5456000    0.760376741738

     47   P     117             0.1517000    1.000000000000

     48   D     118             0.5500000    1.000000000000

     49   S     119             0.0469000    1.000000000000

     50   P     120             0.0404100    1.000000000000

     51   D     121             0.1510000    1.000000000000

 H         

     52   S     122            13.0100000    0.033498726390
     52   S     123             1.9620000    0.234800801174
     52   S     124             0.4446000    0.813682957883

     53   S     125             0.1220000    1.000000000000

     54   P     126             0.7270000    1.000000000000

     55   S     127             0.0297400    1.000000000000

     56   P     128             0.1410000    1.000000000000

 H         

     57   S     129            13.0100000    0.033498726390
     57   S     130             1.9620000    0.234800801174
     57   S     131             0.4446000    0.813682957883

     58   S     132             0.1220000    1.000000000000

     59   P     133             0.7270000    1.000000000000

     60   S     134             0.0297400    1.000000000000

     61   P     135             0.1410000    1.000000000000

 H         

     62   S     136            13.0100000    0.033498726390
     62   S     137             1.9620000    0.234800801174
     62   S     138             0.4446000    0.813682957883

     63   S     139             0.1220000    1.000000000000

     64   P     140             0.7270000    1.000000000000

     65   S     141             0.0297400    1.000000000000

     66   P     142             0.1410000    1.000000000000

 TOTAL NUMBER OF BASIS SET SHELLS             =   66
 NUMBER OF CARTESIAN GAUSSIAN BASIS FUNCTIONS =  154
 NOTE: THIS RUN WILL RESTRICT THE MO VARIATION SPACE TO SPHERICAL HARMONICS.
 THE NUMBER OF ORBITALS KEPT IN THE VARIATIONAL SPACE WILL BE PRINTED LATER.
 NUMBER OF ELECTRONS                          =   30
 CHARGE OF MOLECULE                           =    0
 SPIN MULTIPLICITY                            =    1
 NUMBER OF OCCUPIED ORBITALS (ALPHA)          =   15
 NUMBER OF OCCUPIED ORBITALS (BETA )          =   15
 TOTAL NUMBER OF ATOMS                        =   10
 THE NUCLEAR REPULSION ENERGY IS      102.9481797938

 SELECTED MURRAY-HANDY-LAMING RADIAL GRID

 LEGACY BECKE'S FUZZY CELL METHOD

 SELECTED ORIGINAL BECKE'S PARTITION FUNCTION

     LEBEDEV GRID-BASED DFT OPTIONS
     ------------------------------
     DFTTYP=B3LYP   
     NRAD  =      96     NLEB  =     302
     NRAD0 =      24     NLEB0 =     110
     SWOFF =    5.00E-03 (PURE SCF -> DFT)
     SWITCH=    3.00E-04 (COARSE -> TIGHT GRID)
     THRESH=    0.00E+00 GTHRE=    1.00E+00

 GRIMME'S EMPIRICAL DISPERSION CORRECTION= F

     $CONTRL OPTIONS
     ---------------
 SCFTYP=UHF          RUNTYP=LMOEDA       EXETYP=RUN     
 MPLEVL=       0     CITYP =NONE         CCTYP =NONE         VBTYP =NONE    
 DFTTYP=B3LYP        TDDFT =NONE    
 MULT  =       1     ICHARG=       0     NZVAR =       0     COORD =UNIQUE  
 PP    =NONE         RELWFN=NONE         LOCAL =NONE         NUMGRD=       F
 ISPHER=       1     NOSYM =       0     MAXIT =      30     UNITS =ANGS    
 PLTORB=       F     MOLPLT=       F     AIMPAC=       F     FRIEND=        
 NPRINT=       7     IREST =       0     GEOM  =INPUT   
 NORMF =       0     NORMP =       0     ITOL  =      20     ICUT  =       9
 INTTYP=BEST         GRDTYP=BEST         QMTTOL= 1.0E-06

     $SYSTEM OPTIONS
     ---------------
  REPLICATED MEMORY=   150000000 WORDS (ON EVERY NODE).
 DISTRIBUTED MEMDDI=         150 MILLION WORDS IN AGGREGATE,
 MEMDDI DISTRIBUTED OVER  16 PROCESSORS IS     9375000 WORDS/PROCESSOR.
 TOTAL MEMORY REQUESTED ON EACH PROCESSOR=   159375000 WORDS.
 TIMLIM=      525600.00 MINUTES, OR     365.0 DAYS.
 PARALL= T  BALTYP=  DLB     KDIAG=    0  COREFL= F
 MXSEQ2=     300 MXSEQ3=     150  mem10=         0  mem22=         0

 Using Gaussians for PCM contribution to MEP, params: 0.10000E+01 0.10000E-07

          ----------------
          PROPERTIES INPUT
          ----------------

     MOMENTS            FIELD           POTENTIAL          DENSITY
 IEMOM =       1   IEFLD =       0   IEPOT =       0   IEDEN =       0
 WHERE =COMASS     WHERE =NUCLEI     WHERE =NUCLEI     WHERE =NUCLEI  
 OUTPUT=BOTH       OUTPUT=BOTH       OUTPUT=BOTH       OUTPUT=BOTH    
 IEMINT=       0   IEFINT=       0                     IEDINT=       0
                                                       MORB  =       0
          EXTRAPOLATION IN EFFECT
          DIIS IN EFFECT
          DIIS or SOSCF will be reset if energy rises
 ORBITAL PRINTING OPTION: NPREO=     1   154     2     1

     -------------------------------
     INTEGRAL TRANSFORMATION OPTIONS
     -------------------------------
     NWORD  =            0
     CUTOFF = 1.0E-09     MPTRAN =       0
     DIRTRF =       F     AOINTS =DUP     

          -----------------------------
          LOCALIZATION INPUT PARAMETERS
          -----------------------------
           LOCAL=RUEDNBRG      NOUTA=       0
          PRTLOC=       F      NOUTB=       0
          MAXLOC=     250     CVGLOC=1.00E-06
           FCORE=       F     SYMLOC=       F
          MOIDON=       F     EDCOMP=       F
          DIPDCM=       F      NPROT=       0
          QADDCM=       F     DEPRNT=       F
          POLNUM=       F     ORIENT=       F
          POLDYN=       F      VMTOL=1.50E-01
          NPRDTL=       2     IBOYAL=       1

          ----------------------
          INTEGRAL INPUT OPTIONS
          ----------------------
 NOPK  =       1 NORDER=       0 SCHWRZ=       T

     ------------------------------------------
     THE POINT GROUP IS C1 , NAXIS= 0, ORDER= 1
     ------------------------------------------

 -- VARIATIONAL SPACE WILL BE RESTRICTED TO PURE SPHERICAL HARMONICS ONLY --
 AFTER EXCLUDING CONTAMINANT COMBINATIONS FROM THE CARTESIAN GAUSSIAN BASIS
 SET, THE NUMBER OF SPHERICAL HARMONICS KEPT IN THE VARIATION SPACE IS  146

     DIMENSIONS OF THE SYMMETRY SUBSPACES ARE
 A   =  146

 ..... DONE SETTING UP THE RUN .....
 CPU     0: STEP CPU TIME=     0.03 TOTAL CPU TIME=          0.0 (      0.0 MIN)
 TOTAL WALL CLOCK TIME=          0.0 SECONDS, CPU UTILIZATION IS    72.88%

          --------------
          GKSEDA OPTIONS
          --------------
          NMOL  =       2          EDATYP=GKS     
          SUPBAS=       T          RDVECM=       F          ITRTN =       T

 *******************
 GKSEDA IS BEGINNING
 *******************

 NMOL =  2

 MONOMER     ATOM   CHARGE ELECTRON MULTIPLE
 -------------------------------------------
       1        5        0       15        2
       2        5        0       15       -2
 -------------------------------------------

 SAVING MOL INFO REQUIRES    598670 WORDS OF MEMORY.

          ********************
          1 ELECTRON INTEGRALS
          ********************
 ...... END OF ONE-ELECTRON INTEGRALS ......
 CPU     0: STEP CPU TIME=     0.01 TOTAL CPU TIME=          0.0 (      0.0 MIN)
 TOTAL WALL CLOCK TIME=          0.0 SECONDS, CPU UTILIZATION IS    75.77%

          -------------
          GUESS OPTIONS
          -------------
          GUESS =HUCKEL            NORB  =       0          NORDER=       0
          MIX   =       F          PRTMO =       F          PUNMO =       F
          TOLZ  = 1.0E-08          TOLE  = 1.0E-05
          SYMDEN=       F          PURIFY=       F

 INITIAL GUESS ORBITALS GENERATED BY HUCKEL   ROUTINE.
 HUCKEL GUESS REQUIRES    180842 WORDS.

 STATISTICS FOR GENERATION OF SYMMETRY ORBITAL -Q- MATRIX
 NUMBER OF CARTESIAN ATOMIC ORBITALS=        154
 NUMBER OF SPHERICAL CONTAMINANTS DROPPED=     8
 NUMBER OF LINEARLY DEPENDENT MOS DROPPED=     0
 TOTAL NUMBER OF MOS IN VARIATION SPACE=     146

 SYMMETRIES FOR INITIAL GUESS ORBITALS FOLLOW.  ALPHA SET(S).
    15 ORBITALS ARE OCCUPIED (    4 CORE ORBITALS).
     5=A        6=A        7=A        8=A        9=A       10=A       11=A   
    12=A       13=A       14=A       15=A       16=A       17=A       18=A   
    19=A       20=A       21=A       22=A       23=A       24=A       25=A   

 SYMMETRIES FOR INITIAL GUESS ORBITALS FOLLOW.   BETA SET(S).
    15 ORBITALS ARE OCCUPIED (    4 CORE ORBITALS).
     5=A        6=A        7=A        8=A        9=A       10=A       11=A   
    12=A       13=A       14=A       15=A       16=A       17=A       18=A   
    19=A       20=A       21=A       22=A       23=A       24=A       25=A   
 ...... END OF INITIAL ORBITAL SELECTION ......
 CPU     0: STEP CPU TIME=     0.01 TOTAL CPU TIME=          0.0 (      0.0 MIN)
 TOTAL WALL CLOCK TIME=          0.1 SECONDS, CPU UTILIZATION IS    81.20%

          -------------------------
          MONOMER  1 WITH OWN BASIS
          -------------------------

     ------------------------------------------
     THE POINT GROUP IS C1 , NAXIS= 0, ORDER= 1
     ------------------------------------------

 -- VARIATIONAL SPACE WILL BE RESTRICTED TO PURE SPHERICAL HARMONICS ONLY --
 AFTER EXCLUDING CONTAMINANT COMBINATIONS FROM THE CARTESIAN GAUSSIAN BASIS
 SET, THE NUMBER OF SPHERICAL HARMONICS KEPT IN THE VARIATION SPACE IS   73

     DIMENSIONS OF THE SYMMETRY SUBSPACES ARE
 A   =   73

          ********************
          1 ELECTRON INTEGRALS
          ********************
 ...... END OF ONE-ELECTRON INTEGRALS ......
 CPU     0: STEP CPU TIME=     0.01 TOTAL CPU TIME=          0.1 (      0.0 MIN)
 TOTAL WALL CLOCK TIME=          0.1 SECONDS, CPU UTILIZATION IS    79.18%

          -------------
          GUESS OPTIONS
          -------------
          GUESS =HUCKEL            NORB  =       0          NORDER=       0
          MIX   =       F          PRTMO =       F          PUNMO =       F
          TOLZ  = 1.0E-08          TOLE  = 1.0E-05
          SYMDEN=       F          PURIFY=       F

 INITIAL GUESS ORBITALS GENERATED BY HUCKEL   ROUTINE.
 HUCKEL GUESS REQUIRES     47410 WORDS.

 STATISTICS FOR GENERATION OF SYMMETRY ORBITAL -Q- MATRIX
 NUMBER OF CARTESIAN ATOMIC ORBITALS=         77
 NUMBER OF SPHERICAL CONTAMINANTS DROPPED=     4
 NUMBER OF LINEARLY DEPENDENT MOS DROPPED=     0
 TOTAL NUMBER OF MOS IN VARIATION SPACE=      73

 SYMMETRIES FOR INITIAL GUESS ORBITALS FOLLOW.  ALPHA SET(S).
     8 ORBITALS ARE OCCUPIED (    2 CORE ORBITALS).
     3=A        4=A        5=A        6=A        7=A        8=A        9=A   
    10=A       11=A       12=A       13=A       14=A       15=A       16=A   
    17=A       18=A   

 SYMMETRIES FOR INITIAL GUESS ORBITALS FOLLOW.   BETA SET(S).
     7 ORBITALS ARE OCCUPIED (    2 CORE ORBITALS).
     3=A        4=A        5=A        6=A        7=A        8=A        9=A   
    10=A       11=A       12=A       13=A       14=A       15=A       16=A   
    17=A   
 ...... END OF INITIAL ORBITAL SELECTION ......
 CPU     0: STEP CPU TIME=     0.00 TOTAL CPU TIME=          0.1 (      0.0 MIN)
 TOTAL WALL CLOCK TIME=          0.1 SECONDS, CPU UTILIZATION IS    80.04%

                    ----------------------
                    AO INTEGRAL TECHNOLOGY
                    ----------------------
     S,P,L SHELL ROTATED AXIS INTEGRALS, REPROGRAMMED BY
        KAZUYA ISHIMURA (IMS) AND JOSE SIERRA (SYNSTAR).
     S,P,D,L SHELL ROTATED AXIS INTEGRALS PROGRAMMED BY
        KAZUYA ISHIMURA (INSTITUTE FOR MOLECULAR SCIENCE).
     S,P,D,F,G SHELL TO TOTAL QUARTET ANGULAR MOMENTUM SUM 5,
        ERIC PROGRAM BY GRAHAM FLETCHER (ELORET AND NASA ADVANCED
        SUPERCOMPUTING DIVISION, AMES RESEARCH CENTER).
     S,P,D,F,G,L SHELL GENERAL RYS QUADRATURE PROGRAMMED BY
        MICHEL DUPUIS (PACIFIC NORTHWEST NATIONAL LABORATORY).

          --------------------
          2 ELECTRON INTEGRALS
          --------------------

 THE -PK- OPTION IS OFF, THE INTEGRALS ARE NOT IN SUPERMATRIX FORM.
 STORING   15000 INTEGRALS/RECORD ON DISK, USING 12 BYTES/INTEGRAL.
 TWO ELECTRON INTEGRAL EVALUATION REQUIRES   90957 WORDS OF MEMORY.
 SCHWARZ INEQUALITY OVERHEAD:      3003 INTEGRALS, T=        0.00
 II,JST,KST,LST =  1  1  1  1 NREC =         1 INTLOC =    1
 II,JST,KST,LST =  2  1  1  1 NREC =         1 INTLOC =    1
 II,JST,KST,LST =  3  1  1  1 NREC =         1 INTLOC =    1
 II,JST,KST,LST =  4  1  1  1 NREC =         1 INTLOC =    1
 II,JST,KST,LST =  5  1  1  1 NREC =         1 INTLOC =    1
 II,JST,KST,LST =  6  1  1  1 NREC =         1 INTLOC =    1
 II,JST,KST,LST =  7  1  1  1 NREC =         1 INTLOC =    4
 II,JST,KST,LST =  8  1  1  1 NREC =         1 INTLOC =  250
 II,JST,KST,LST =  9  1  1  1 NREC =         1 INTLOC =  250
 II,JST,KST,LST = 10  1  1  1 NREC =         1 INTLOC =  250
 II,JST,KST,LST = 11  1  1  1 NREC =         1 INTLOC =  399
 II,JST,KST,LST = 12  1  1  1 NREC =         1 INTLOC =  825
 II,JST,KST,LST = 13  1  1  1 NREC =         1 INTLOC = 1147
 II,JST,KST,LST = 14  1  1  1 NREC =         1 INTLOC = 4689
 II,JST,KST,LST = 15  1  1  1 NREC =         1 INTLOC = 4689
 II,JST,KST,LST = 16  1  1  1 NREC =         1 INTLOC = 6777
 II,JST,KST,LST = 17  1  1  1 NREC =         1 INTLOC = 8129
 II,JST,KST,LST = 18  1  1  1 NREC =         1 INTLOC =12739
 II,JST,KST,LST = 19  1  1  1 NREC =         2 INTLOC = 9536
 II,JST,KST,LST = 20  1  1  1 NREC =         2 INTLOC = 9536
 II,JST,KST,LST = 21  1  1  1 NREC =         2 INTLOC = 9536
 II,JST,KST,LST = 22  1  1  1 NREC =         3 INTLOC =10741
 II,JST,KST,LST = 23  1  1  1 NREC =         3 INTLOC =14617
 II,JST,KST,LST = 24  1  1  1 NREC =         5 INTLOC =12080
 II,JST,KST,LST = 25  1  1  1 NREC =         6 INTLOC =  677
 II,JST,KST,LST = 26  1  1  1 NREC =         7 INTLOC =  731
 II,JST,KST,LST = 27  1  1  1 NREC =         7 INTLOC =14757
 II,JST,KST,LST = 28  1  1  1 NREC =         8 INTLOC = 9132
 II,JST,KST,LST = 29  1  1  1 NREC =         9 INTLOC = 6222
 II,JST,KST,LST = 30  1  1  1 NREC =        11 INTLOC = 7180
 II,JST,KST,LST = 31  1  1  1 NREC =        11 INTLOC = 7180
 II,JST,KST,LST = 32  1  1  1 NREC =        12 INTLOC = 3807
 II,JST,KST,LST = 33  1  1  1 NREC =        13 INTLOC = 6734
 SCHWARZ INEQUALITY TEST SKIPPED           0 INTEGRAL BLOCKS.
 TOTAL NUMBER OF NONZERO TWO-ELECTRON INTEGRALS =             3901247
        268 INTEGRAL RECORDS WERE STORED ON DISK FILE  8.
  ...... END OF TWO-ELECTRON INTEGRALS .....
 CPU     0: STEP CPU TIME=     0.03 TOTAL CPU TIME=          0.1 (      0.0 MIN)
 TOTAL WALL CLOCK TIME=          0.1 SECONDS, CPU UTILIZATION IS    82.47%

          ---------------------------
              U-B3LYP SCF CALCULATION
          ---------------------------

     NUCLEAR ENERGY =        27.8901270544
     MAXIT = 30     NPUNCH=  2     MULT=  2
     EXTRAP=T  DAMP=F  SHIFT=F  RSTRCT=F  DIIS=T  SOSCF=T
         DENSITY MATRIX CONVERGENCE THRESHOLD=  1.00E-05
     COARSE -> FINE DFT GRID SWITCH THRESHOLD=  3.00E-04 (SWITCH IN $DFT)
                   HF -> DFT SWITCH THRESHOLD=  5.00E-03 (SWOFF IN $DFT)
     SOSCF WILL OPTIMIZE     520 ALPHA AND     462 BETA ROTATION ANGLES.
     SOGTOL= 2.500E-01
     MEMORY REQUIRED FOR UHF/ROHF ITERS=    298732 WORDS.

     EXCHANGE FUNCTIONAL   =B88&HFX   
     CORRELATION FUNCTIONAL=LYP88&VWN5
     DFT THRESHOLD         =.690E-08
     GRID CHANGE THRESHOLD =.300E-03
 FOR AN EULER-MACLAURIN QUADRATURE USING  96 RADIAL POINTS:
 SMALLEST GAUSSIAN PRIMITIVE EXPONENT=        0.0297400000 OF TYPE -S-
 ON ATOM NUMBER   3 HAS RADIAL NORMALIZATION=  1.000000
  LARGEST GAUSSIAN PRIMITIVE EXPONENT=     6665.0000000000 OF TYPE -S-
 ON ATOM NUMBER   1 HAS RADIAL NORMALIZATION=  1.000000
 DFT IS SWITCHED OFF, PERFORMING PURE SCF UNTIL SWOFF THRESHOLD IS REACHED.

 ITER EX      TOTAL ENERGY        E CHANGE  DENSITY CHANGE    DIIS ERROR
          * * *   INITIATING DIIS PROCEDURE   * * *
   1  0      -77.1747574178   -77.1747574178   0.501152166   0.357526259
   2  1      -77.3688612616    -0.1941038438   0.155116706   0.054047824
   3  2      -77.3849071768    -0.0160459153   0.031189062   0.025890797
   4  3      -77.3893030041    -0.0043958273   0.022046292   0.011165563
   5  4      -77.3906855633    -0.0013825592   0.012868338   0.008512655
   6  5      -77.3913285642    -0.0006430009   0.024583818   0.008499774
   7  6      -77.3923953524    -0.0010667883   0.065214209   0.008232478
   8  7      -77.3947714350    -0.0023760826   0.106586597   0.006292198
   9  8      -77.3962541852    -0.0014827501   0.061519875   0.001782157
  10  9      -77.3958782217     0.0003759635   0.040107406   0.003831608
  11 10      -77.3963097824    -0.0004315607   0.005129287   0.000597119
  12 11      -77.3963195860    -0.0000098037   0.001682415   0.000144664
 CONVERGED TO SWOFF, SO DFT CALCULATION IS NOW SWITCHED ON.
          * * *   INITIATING DIIS PROCEDURE   * * *
  13 12      -77.8302811764    -0.4339615904   0.393237750   0.062458011
  14 13      -77.8468441693    -0.0165629929   0.062477386   0.016680311
  15 14      -77.8495103572    -0.0026661878   0.024704544   0.011972180
  16 15      -77.8509622529    -0.0014518957   0.050402571   0.007346877
  17 16      -77.8519360371    -0.0009737841   0.009003524   0.003289532
  18 17      -77.8520140452    -0.0000780082   0.005845156   0.001427295
  19 18      -77.8520335158    -0.0000194706   0.001985013   0.000279652
         SWDIIS THRESHOLD HAS BEEN REACHED: SWITCHING DIIS OFF.
          ---------------START SECOND ORDER SCF---------------
  20 19      -77.8520346468    -0.0000011309   0.000135908   0.000021738
  21 20      -77.8520346594    -0.0000000126   0.000155501   0.000022791
  22 21      -77.8520346600    -0.0000000006   0.000065797   0.000021813
  23 22      -77.8520346643    -0.0000000044   0.000008381   0.000002336
  24 23      -77.8520346645    -0.0000000001   0.000011671   0.000001847

          ----------------
          ENERGY CONVERGED
          ----------------
     TIME TO FORM FOCK OPERATORS=       1.2 SECONDS (       0.1 SEC/ITER)
     TIME TO SOLVE SCF EQUATIONS=       0.1 SECONDS (       0.0 SEC/ITER)

 FINAL U-B3LYP ENERGY IS      -77.8520346645 AFTER  24 ITERATIONS
 DFT EXCHANGE + CORRELATION ENERGY =        -9.5253799228
 TOTAL ELECTRON NUMBER             =        14.9999824397

          --------------------
          SPIN SZ   =    0.500
          S-SQUARED =    0.764
          --------------------

  ----- ALPHA SET ----- 

          ------------
          EIGENVECTORS
          ------------

                      1          2          3          4          5
                  -10.2288   -10.2017    -0.7673    -0.5778    -0.4646
                     A          A          A          A          A   
    1  C  1  S    0.012312   1.009652  -0.019721   0.011342  -0.002211
    2  C  1  S   -0.001521   0.022169   0.316405  -0.226937   0.001213
    3  C  1  S    0.040348  -0.073434   0.095472  -0.325031  -0.032555
    4  C  1  X   -0.000007   0.000022   0.000090  -0.002190  -0.007232
    5  C  1  Y   -0.000024  -0.000009   0.007692   0.031753   0.341202
    6  C  1  Z   -0.001011  -0.000340   0.111116   0.207128  -0.209635
    7  C  1  X    0.000110  -0.000018  -0.000962  -0.000753  -0.000548
    8  C  1  Y   -0.001363  -0.000260   0.024261   0.026798  -0.016637
    9  C  1  Z    0.038692  -0.008991  -0.029973  -0.241995   0.040011
   10  C  1 XX    0.000218  -0.001629  -0.006284   0.001483  -0.001728
   11  C  1 YY    0.000860   0.000837  -0.007616  -0.011330   0.008494
   12  C  1 ZZ   -0.001078   0.000792   0.013899   0.009847  -0.006766
   13  C  1 XY   -0.000010  -0.000052   0.000007   0.000297  -0.000083
   14  C  1 XZ   -0.000017  -0.000006   0.000041  -0.000230  -0.000120
   15  C  1 YZ    0.000473   0.000048   0.000202   0.002332  -0.006031
   16  C  1  S    0.015316  -0.034006   0.016514   0.138544  -0.060112
   17  C  1  X   -0.000025  -0.000033   0.000026  -0.000385   0.000977
   18  C  1  Y    0.000772   0.000826  -0.003680   0.008867  -0.058843
   19  C  1  Z    0.006223  -0.003711  -0.001967   0.011918  -0.008734
   20  C  1 XX   -0.002134   0.004870   0.006435  -0.007190  -0.006262
   21  C  1 YY   -0.004469   0.001491  -0.008110   0.105782  -0.044627
   22  C  1 ZZ    0.006603  -0.006361   0.001675  -0.098592   0.050888
   23  C  1 XY    0.000067   0.000086  -0.000208  -0.003207  -0.000348
   24  C  1 XZ    0.000109   0.000048  -0.000600  -0.000174  -0.001888
   25  C  1 YZ   -0.003140  -0.001068   0.024771   0.019322   0.104834
   26  C  2  S    1.009989  -0.013897  -0.017205  -0.006466  -0.000315
   27  C  2  S    0.022739  -0.001379   0.307096   0.268864  -0.070334
   28  C  2  S   -0.090018   0.024600   0.253838   0.493796  -0.241019
   29  C  2  X   -0.000074  -0.000005  -0.001824  -0.006398  -0.009013
   30  C  2  Y    0.000896   0.000105   0.024224   0.097607   0.255071
   31  C  2  Z   -0.000225   0.000918  -0.128686   0.119358   0.163135
   32  C  2  X    0.000239   0.000074   0.002537   0.003392  -0.000013
   33  C  2  Y   -0.003165  -0.001136  -0.057673  -0.092571   0.008652
   34  C  2  Z    0.030783  -0.016895  -0.091666  -0.220416   0.063066
   35  C  2 XX   -0.000855   0.000675  -0.011459  -0.001401  -0.000448
   36  C  2 YY    0.000512   0.000640  -0.003924   0.009819   0.005676
   37  C  2 ZZ    0.000343  -0.001316   0.015383  -0.008418  -0.005229
   38  C  2 XY   -0.000072  -0.000005  -0.000059  -0.000473  -0.000595
   39  C  2 XZ   -0.000057  -0.000003   0.000173  -0.000125  -0.000019
   40  C  2 YZ    0.000888   0.000039  -0.006128  -0.001663  -0.009735
   41  C  2  S   -0.029105   0.019854  -0.018840  -0.118679   0.022079
   42  C  2  X    0.000067   0.000070   0.000191   0.001355  -0.000199
   43  C  2  Y   -0.001406  -0.001333  -0.000273  -0.026744   0.018186
   44  C  2  Z    0.004249  -0.005773   0.006672   0.004957  -0.013253
   45  C  2 XX    0.005998  -0.001053  -0.006905   0.006223   0.001139
   46  C  2 YY    0.004309  -0.001755  -0.017677  -0.059569  -0.008153
   47  C  2 ZZ   -0.010307   0.002807   0.024583   0.053346   0.007014
   48  C  2 XY    0.000078   0.000024   0.001375   0.003262   0.001382
   49  C  2 XZ    0.000214   0.000055  -0.000090   0.001174   0.000202
   50  C  2 YZ   -0.004272  -0.001160   0.008705  -0.022280   0.013108
   51  H  3  S   -0.000658  -0.000099   0.123824   0.258912   0.193918
   52  H  3  S    0.021345   0.007200   0.064928   0.272137   0.108009
   53  H  3  X   -0.000093   0.000007   0.000680   0.001063   0.000572
   54  H  3  Y    0.001713  -0.000008  -0.012704  -0.016810  -0.005868
   55  H  3  Z    0.000738   0.000183  -0.011295  -0.010008  -0.005269
   56  H  3  S    0.001296   0.001935   0.003474   0.025819   0.010325
   57  H  3  X    0.000441   0.000133   0.000144   0.003409   0.000088
   58  H  3  Y   -0.007685  -0.002220  -0.007742  -0.042187  -0.011795
   59  H  3  Z   -0.002011  -0.000914  -0.017526  -0.029538  -0.010613
   60  H  4  S   -0.000349  -0.000855   0.116783  -0.229244  -0.141275
   61  H  4  S    0.017775   0.021915  -0.010733  -0.218218  -0.198785
   62  H  4  X    0.000007   0.000034  -0.000300   0.000257  -0.000054
   63  H  4  Y   -0.000211  -0.001551   0.014400  -0.016888   0.000587
   64  H  4  Z   -0.000609  -0.001015   0.012547  -0.005358  -0.009994
   65  H  4  S    0.001780   0.002007   0.000055  -0.012874  -0.041664
   66  H  4  X   -0.000098  -0.000132   0.000045   0.000274   0.000603
   67  H  4  Y    0.004851   0.006795  -0.009308  -0.020761  -0.049714
   68  H  4  Z    0.002433   0.003027   0.008851  -0.033965   0.011239
   69  H  5  S   -0.000192  -0.000913   0.126319  -0.202800   0.341317
   70  H  5  S    0.009345   0.019017   0.014565  -0.224738   0.435138
   71  H  5  X   -0.000002  -0.000023   0.000212  -0.000225   0.000042
   72  H  5  Y   -0.000078   0.001519  -0.014511   0.016627  -0.010250
   73  H  5  Z   -0.000418  -0.000945   0.011314  -0.004919   0.005112
   74  H  5  S    0.001702   0.001126   0.002213  -0.013627   0.045598
   75  H  5  X    0.000022   0.000085   0.000321   0.000658   0.001398
   76  H  5  Y   -0.002376  -0.006013   0.000710   0.020017  -0.072540
   77  H  5  Z    0.001983   0.002961  -0.002024  -0.053506   0.040813

                      6          7          8          9         10
                   -0.4139    -0.2853    -0.2729    -0.0193    -0.0019
                     A          A          A          A          A   
    1  C  1  S    0.000031  -0.000032   0.000594   0.000118  -0.003004
    2  C  1  S   -0.036335  -0.007109   0.050060   0.000769   0.084457
    3  C  1  S   -0.170592  -0.005224   0.021889   0.001579   0.345099
    4  C  1  X    0.002055   0.389833   0.044631   0.403304  -0.000774
    5  C  1  Y   -0.254889   0.020094  -0.133247   0.006279   0.029524
    6  C  1  Z   -0.320069  -0.015097   0.112123   0.002083  -0.096234
    7  C  1  X   -0.002966   0.214776   0.023219   0.338717  -0.000571
    8  C  1  Y    0.060615  -0.000293   0.032628   0.007054   0.042423
    9  C  1  Z   -0.092375   0.002306  -0.021903   0.001505  -0.283804
   10  C  1 XX   -0.001152   0.000035   0.000542   0.000075   0.000938
   11  C  1 YY    0.010663   0.000110  -0.000664   0.000036  -0.002786
   12  C  1 ZZ   -0.009511  -0.000145   0.000121  -0.000111   0.001848
   13  C  1 XY   -0.000426   0.000626  -0.000056   0.000049   0.000138
   14  C  1 XZ   -0.000803   0.021673   0.001379  -0.030086  -0.000085
   15  C  1 YZ    0.013654  -0.003117   0.040423  -0.001526   0.001430
   16  C  1  S   -0.039206  -0.020268   0.156785  -0.002314   1.300126
   17  C  1  X   -0.001282   0.028553   0.003149   0.565787   0.003944
   18  C  1  Y    0.051274  -0.001159   0.019981   0.008741   0.037702
   19  C  1  Z   -0.015042  -0.005174   0.039865  -0.000527  -0.297069
   20  C  1 XX    0.000096   0.000461  -0.005613  -0.000131  -0.039343
   21  C  1 YY   -0.044237  -0.003741   0.028948  -0.000035   0.024915
   22  C  1 ZZ    0.044140   0.003280  -0.023334   0.000166   0.014427
   23  C  1 XY    0.000269   0.004594  -0.000319  -0.003305  -0.001324
   24  C  1 XZ    0.000796   0.003663   0.000947  -0.041997  -0.001172
   25  C  1 YZ   -0.051694   0.003032  -0.035025   0.001138   0.026977
   26  C  2  S   -0.000888  -0.000034  -0.000778   0.000102  -0.002546
   27  C  2  S    0.030913   0.019128  -0.150308  -0.003138   0.056066
   28  C  2  S   -0.054583   0.037331  -0.309893  -0.007937   0.367238
   29  C  2  X   -0.008564   0.441225   0.033589  -0.411289  -0.002298
   30  C  2  Y    0.034857  -0.033461   0.473286  -0.017488   0.043718
   31  C  2  Z    0.374758   0.034002  -0.254047  -0.004438   0.082634
   32  C  2  X    0.001739   0.254834   0.023035  -0.348505  -0.005954
   33  C  2  Y   -0.066570  -0.013861   0.242417  -0.017804   0.098480
   34  C  2  Z    0.044327   0.026835  -0.221454  -0.002719  -0.007393
   35  C  2 XX   -0.001592   0.000159  -0.004779   0.000174  -0.001695
   36  C  2 YY    0.011024   0.000318   0.000003  -0.000010  -0.004878
   37  C  2 ZZ   -0.009432  -0.000477   0.004777  -0.000163   0.006573
   38  C  2 XY   -0.000721  -0.000480  -0.000892  -0.000080   0.000124
   39  C  2 XZ   -0.000634  -0.020306  -0.002703  -0.032162   0.000058
   40  C  2 YZ    0.017775  -0.002385   0.020258  -0.000166  -0.003618
   41  C  2  S   -0.013744   0.031282  -0.260184  -0.005168   0.870050
   42  C  2  X    0.001634   0.031164   0.003264  -0.517455  -0.012066
   43  C  2  Y   -0.035860  -0.000993   0.024049  -0.016196   0.190637
   44  C  2  Z   -0.015412  -0.001582   0.007162  -0.004123   0.149007
   45  C  2 XX   -0.004225  -0.001073   0.006877  -0.000290  -0.039465
   46  C  2 YY   -0.036916   0.002729  -0.022894   0.000105  -0.012719
   47  C  2 ZZ    0.041140  -0.001657   0.016017   0.000184   0.052185
   48  C  2 XY    0.002788  -0.001456   0.000871   0.008360  -0.002042
   49  C  2 XZ    0.000625  -0.007181  -0.000305  -0.037691  -0.001652
   50  C  2 YZ   -0.017189   0.000617  -0.012081   0.000933   0.033304
   51  H  3  S    0.233190  -0.019863   0.195046   0.007424   0.005242
   52  H  3  S    0.278338  -0.025870   0.248925   0.007735  -0.358319
   53  H  3  X    0.000378   0.015559   0.001814  -0.020926   0.000575
   54  H  3  Y   -0.009256   0.000047   0.006877  -0.000831  -0.010670
   55  H  3  Z    0.001032   0.002027  -0.015814  -0.000183  -0.001577
   56  H  3  S    0.036851  -0.002041   0.027550   0.006825  -0.900156
   57  H  3  X    0.001992   0.015079   0.003716  -0.053652  -0.001943
   58  H  3  Y   -0.038736   0.002595  -0.017661  -0.000237   0.031544
   59  H  3  Z   -0.036530   0.003864  -0.029024   0.000232   0.032995
   60  H  4  S    0.324694  -0.011835   0.145745  -0.002744   0.006875
   61  H  4  S    0.390847  -0.015237   0.193581  -0.005728  -0.404467
   62  H  4  X   -0.000333   0.014341   0.001583   0.021808  -0.000185
   63  H  4  Y    0.009632   0.000374  -0.000787   0.000494   0.009655
   64  H  4  Z    0.003102  -0.000585   0.005103   0.000266   0.002018
   65  H  4  S    0.035713  -0.003183   0.039816  -0.012287  -0.636806
   66  H  4  X   -0.001402   0.015679   0.001113   0.045344   0.000909
   67  H  4  Y    0.054953  -0.003062   0.035520   0.000812  -0.063737
   68  H  4  Z    0.052250  -0.000112   0.003373   0.001706  -0.016962
   69  H  5  S   -0.072280   0.021085  -0.209202   0.003626   0.003804
   70  H  5  S   -0.183167   0.034082  -0.336298   0.005940  -0.420290
   71  H  5  X    0.000015   0.014277   0.001618   0.022656   0.000215
   72  H  5  Y   -0.003174   0.000166  -0.000064   0.000422  -0.012236
   73  H  5  Z   -0.010882  -0.000038   0.000284  -0.000067   0.003416
   74  H  5  S   -0.043109   0.002891  -0.041733   0.005478  -1.138552
   75  H  5  X   -0.000085   0.012750   0.001166   0.052825  -0.000548
   76  H  5  Y    0.051062  -0.003998   0.043056   0.001356   0.036460
   77  H  5  Z   -0.005812   0.003105  -0.022870  -0.001084  -0.024934

                     11         12         13         14         15
                    0.0149     0.0250     0.0627     0.0712     0.0790
                     A          A          A          A          A   
    1  C  1  S   -0.001248   0.002372   0.001088   0.007707   0.002923
    2  C  1  S    0.067563  -0.017238  -0.001489  -0.011886   0.044189
    3  C  1  S    0.183694  -0.128120  -0.057903  -0.389706   0.153208
    4  C  1  X    0.000556   0.000681   0.171737  -0.017437   0.001340
    5  C  1  Y   -0.067399  -0.118523   0.005755   0.036604   0.011508
    6  C  1  Z   -0.036393   0.005204   0.000958   0.013940   0.054190
    7  C  1  X    0.003013   0.003504   0.198748  -0.022267  -0.001684
    8  C  1  Y   -0.171541  -0.371438   0.009002   0.101098   0.010125
    9  C  1  Z   -0.274295   0.105719  -0.004093   0.030888  -0.047534
   10  C  1 XX    0.002811  -0.003177  -0.000479  -0.007375  -0.006780
   11  C  1 YY    0.004852  -0.001733   0.000118   0.001033  -0.010963
   12  C  1 ZZ   -0.007662   0.004910   0.000361   0.006342   0.017743
   13  C  1 XY   -0.000144  -0.000017  -0.000896  -0.000129   0.000036
   14  C  1 XZ    0.000409   0.000070   0.006164  -0.000081  -0.000140
   15  C  1 YZ   -0.004821  -0.003828  -0.000850  -0.010537   0.003020
   16  C  1  S    0.426838  -1.739193  -1.236281 -10.826134   1.504542
   17  C  1  X   -0.006522   0.035589  -0.626581   0.065061   0.010481
   18  C  1  Y   -0.202656  -1.942056   0.082418   0.430915  -0.493221
   19  C  1  Z   -0.534052  -0.365903  -0.517493  -4.816990  -1.564146
   20  C  1 XX   -0.010857   0.016526   0.007285   0.081503   0.022838
   21  C  1 YY    0.022433  -0.051305  -0.013351  -0.153364   0.017219
   22  C  1 ZZ   -0.011576   0.034779   0.006066   0.071861  -0.040057
   23  C  1 XY   -0.001902   0.001731   0.024518   0.003518   0.001323
   24  C  1 XZ    0.001295  -0.002569   0.040647  -0.005442  -0.002863
   25  C  1 YZ   -0.043257   0.100145  -0.002224   0.004406   0.114610
   26  C  2  S   -0.001263  -0.000760  -0.000908  -0.005507   0.005502
   27  C  2  S   -0.072927   0.048009   0.003971   0.040679   0.030552
   28  C  2  S   -0.228861   0.243844   0.059633   0.431410   0.052768
   29  C  2  X    0.006266   0.000997   0.127897  -0.006897  -0.001070
   30  C  2  Y   -0.085148  -0.045931  -0.008281  -0.142090   0.061273
   31  C  2  Z   -0.028026   0.023461   0.001522   0.004606  -0.075625
   32  C  2  X    0.012395  -0.004790   0.144229  -0.024063   0.009251
   33  C  2  Y   -0.159262   0.092659   0.027572   0.114673  -0.142866
   34  C  2  Z   -0.250894   0.149751  -0.003420   0.042968  -0.065440
   35  C  2 XX   -0.003380   0.001483  -0.000393   0.001418  -0.010042
   36  C  2 YY   -0.001788   0.002140   0.000546  -0.000595  -0.013452
   37  C  2 ZZ    0.005168  -0.003623  -0.000153  -0.000824   0.023495
   38  C  2 XY   -0.000274   0.000030   0.003876  -0.000204   0.000194
   39  C  2 XZ   -0.000158  -0.000006  -0.013377   0.001190   0.000157
   40  C  2 YZ    0.008201   0.007577  -0.000149   0.002006  -0.006681
   41  C  2  S   -0.487685   2.276061   1.255334  11.125877  -0.305730
   42  C  2  X    0.038725  -0.029982  -0.589283   0.063547  -0.011569
   43  C  2  Y   -0.554932   1.023969  -0.046989   0.319560  -0.062446
   44  C  2  Z   -0.628301  -0.229993  -0.489966  -4.178475   1.881479
   45  C  2 XX    0.007513  -0.041077  -0.005399  -0.075979   0.063270
   46  C  2 YY   -0.063065   0.032849   0.004460   0.084318  -0.027456
   47  C  2 ZZ    0.055552   0.008228   0.000939  -0.008339  -0.035814
   48  C  2 XY    0.004774  -0.003719  -0.040009  -0.005172   0.003075
   49  C  2 XZ    0.003501  -0.004236  -0.015524  -0.001538  -0.004111
   50  C  2 YZ   -0.072437   0.085298   0.003454   0.059752   0.082891
   51  H  3  S    0.016449   0.015118  -0.000789  -0.022612  -0.017423
   52  H  3  S    0.670853  -0.546571  -0.091056  -0.847778   0.217408
   53  H  3  X   -0.000514   0.000168  -0.005795   0.000046   0.000417
   54  H  3  Y    0.010263   0.000130   0.000756   0.009757  -0.008457
   55  H  3  Z    0.008207  -0.000502   0.000205   0.005357   0.007043
   56  H  3  S    2.556170  -1.433890   0.367144   3.478248  -0.157512
   57  H  3  X    0.004958  -0.008496   0.037756  -0.013874   0.005398
   58  H  3  Y   -0.082825   0.132570   0.018811   0.135667  -0.084888
   59  H  3  Z   -0.021337   0.003565   0.019200   0.140571  -0.096944
   60  H  4  S   -0.009562   0.012724  -0.001746  -0.023581  -0.024215
   61  H  4  S   -0.447125  -0.453946   0.068188   0.588801  -0.347587
   62  H  4  X   -0.000282  -0.000142  -0.003533   0.000440  -0.000031
   63  H  4  Y    0.007626   0.002772   0.000162  -0.000159   0.003665
   64  H  4  Z    0.007148   0.002824  -0.000807  -0.010504  -0.011205
   65  H  4  S   -2.041769  -3.107172   0.032138   0.443366  -1.130750
   66  H  4  X    0.000435   0.001578   0.070140  -0.008403   0.001507
   67  H  4  Y   -0.060200  -0.053012   0.004104   0.032718  -0.012023
   68  H  4  Z   -0.008110  -0.052963   0.013711   0.144256   0.029735
   69  H  5  S    0.002858  -0.002459   0.002081   0.025393  -0.038446
   70  H  5  S   -0.160325   0.860121   0.042824   0.405017   0.096677
   71  H  5  X   -0.000127  -0.000054  -0.004199   0.000384   0.000089
   72  H  5  Y   -0.002494   0.004226  -0.000129  -0.001352  -0.006312
   73  H  5  Z    0.003247  -0.007302  -0.000331  -0.002381  -0.014324
   74  H  5  S   -0.490194   3.802805  -0.442571  -4.336030   0.590492
   75  H  5  X   -0.000637   0.000013   0.030594  -0.006469   0.001722
   76  H  5  Y    0.063826  -0.091840  -0.001634  -0.002674  -0.090976
   77  H  5  Z    0.051359   0.068211   0.013380   0.100036   0.038056

                     16         17         18         19         20
                    0.1117     0.1127     0.1167     0.1279     0.1458
                     A          A          A          A          A   
    1  C  1  S    0.005757   0.001767  -0.038774  -0.014867  -0.015068
    2  C  1  S   -0.058635  -0.006366  -0.204951  -0.018970  -0.120960
    3  C  1  S   -1.010664  -0.181445   0.313373   0.526144   0.539784
    4  C  1  X   -0.041433   0.233096   0.004192   0.000219  -0.003522
    5  C  1  Y    0.112052   0.022365  -0.084095   0.237246   0.040405
    6  C  1  Z    0.002090  -0.000150   0.121745   0.000510   0.131178
    7  C  1  X   -0.022618   0.186068  -0.000870   0.020740  -0.007376
    8  C  1  Y   -0.422801  -0.064747   0.295239  -0.928429  -0.172398
    9  C  1  Z   -1.233175  -0.183326  -1.559592  -0.379740   1.548724
   10  C  1 XX    0.001062  -0.000317   0.019905   0.016692  -0.039534
   11  C  1 YY   -0.000349   0.000121   0.003782  -0.008221   0.048840
   12  C  1 ZZ   -0.000713   0.000196  -0.023687  -0.008471  -0.009306
   13  C  1 XY   -0.000501   0.001167   0.000272   0.001221  -0.002123
   14  C  1 XZ    0.000155  -0.006963   0.000201  -0.000253   0.000686
   15  C  1 YZ    0.024160   0.003454  -0.007195   0.009244  -0.016626
   16  C  1  S   -5.684963  -0.977715   5.064255   5.307284   0.182708
   17  C  1  X    0.353685  -2.209347  -0.061355   0.102244   0.051911
   18  C  1  Y   -0.302907  -0.106735   1.846285  -6.050613  -2.458495
   19  C  1  Z   -3.582792  -0.560531  -1.946902   1.714446   0.572031
   20  C  1 XX    0.046482   0.011920  -0.160412  -0.037080  -0.096250
   21  C  1 YY    0.184409   0.022069   0.343944   0.201866  -0.660486
   22  C  1 ZZ   -0.230891  -0.033989  -0.183531  -0.164786   0.756736
   23  C  1 XY   -0.000038  -0.034172  -0.010276  -0.007732   0.012676
   24  C  1 XZ    0.011710  -0.056373  -0.003642  -0.007114  -0.010194
   25  C  1 YZ   -0.060624  -0.011401  -0.015218   0.331302   0.323653
   26  C  2  S    0.008447   0.002319  -0.036014  -0.026388   0.024653
   27  C  2  S    0.111377   0.019924  -0.112279  -0.099538   0.013374
   28  C  2  S    0.491341   0.047499   1.289607   0.782898  -2.191966
   29  C  2  X    0.028858  -0.239916  -0.002906  -0.001961   0.007788
   30  C  2  Y    0.180880   0.019877  -0.006876   0.001355  -0.092050
   31  C  2  Z    0.060011   0.009243  -0.084958  -0.008880  -0.067408
   32  C  2  X    0.063188  -0.220615  -0.011740  -0.024713   0.024928
   33  C  2  Y   -0.357253  -0.087068   0.132743   0.402090  -0.513277
   34  C  2  Z   -1.367112  -0.225743  -0.900243   0.126718   1.090533
   35  C  2 XX   -0.004706  -0.000564   0.005439   0.013627  -0.011871
   36  C  2 YY    0.005945   0.000485   0.002425  -0.007879   0.017797
   37  C  2 ZZ   -0.001239   0.000079  -0.007864  -0.005748  -0.005926
   38  C  2 XY    0.000061  -0.006003  -0.000309   0.000949  -0.000628
   39  C  2 XZ    0.000980  -0.004070   0.000041   0.000227   0.000448
   40  C  2 YZ   -0.016072  -0.002181   0.004048  -0.017196   0.001509
   41  C  2  S    4.084572   0.540810   2.631574  -0.917245  -1.961831
   42  C  2  X   -0.206319   2.232322   0.054927  -0.118090  -0.027956
   43  C  2  Y   -2.777062  -0.408705  -0.771233   3.507142   0.704322
   44  C  2  Z   -4.180295  -0.677340  -0.150227   2.255000   1.085910
   45  C  2 XX    0.008049  -0.000578  -0.128144  -0.071495  -0.023734
   46  C  2 YY   -0.305487  -0.046856  -0.130631   0.040242   0.195841
   47  C  2 ZZ    0.297438   0.047434   0.258776   0.031253  -0.172107
   48  C  2 XY    0.010856   0.064595  -0.001666  -0.004937  -0.005219
   49  C  2 XZ    0.027013  -0.082014  -0.006165  -0.008775  -0.009925
   50  C  2 YZ   -0.245020  -0.045545   0.094651   0.145686   0.186251
   51  H  3  S   -0.022266   0.001411   0.010548  -0.087427   0.102177
   52  H  3  S    2.231947   0.430925  -0.529844  -1.789954   0.608165
   53  H  3  X    0.001076  -0.000416  -0.000602  -0.000722   0.000416
   54  H  3  Y   -0.019541  -0.003785   0.011366   0.011037  -0.008255
   55  H  3  Z   -0.011955  -0.002436  -0.001896   0.015102  -0.005186
   56  H  3  S    6.117513   1.040387   0.177336  -3.852069  -0.768220
   57  H  3  X    0.048686  -0.112530  -0.014825  -0.021595  -0.000170
   58  H  3  Y   -0.607586  -0.115312   0.244338   0.281459   0.213052
   59  H  3  Z   -0.384308  -0.069803   0.066137   0.162008  -0.140903
   60  H  4  S    0.027917   0.003477  -0.002311  -0.058110   0.099651
   61  H  4  S   -1.068373  -0.139756  -1.680771  -3.136242   0.711004
   62  H  4  X    0.000355  -0.000213   0.000208   0.000495   0.000334
   63  H  4  Y   -0.010811  -0.001642  -0.009519  -0.022786  -0.024216
   64  H  4  Z   -0.008881  -0.001363  -0.000942  -0.011051   0.005773
   65  H  4  S   -3.868448  -0.591305  -0.780754  -5.108992  -1.980121
   66  H  4  X   -0.004899   0.090222   0.011042   0.008033   0.007555
   67  H  4  Y   -0.327404  -0.043666  -0.442090  -0.569176  -0.476726
   68  H  4  Z   -0.303440  -0.040530  -0.207073  -0.568871   0.398490
   69  H  5  S   -0.020666  -0.000242  -0.017560  -0.022956   0.226041
   70  H  5  S   -0.037046   0.034265  -2.732107   1.092821   2.826071
   71  H  5  X   -0.000057   0.001577  -0.000352   0.000382  -0.000388
   72  H  5  Y   -0.008088  -0.001711   0.026064  -0.016537   0.011444
   73  H  5  Z    0.000732   0.000268  -0.013658   0.014677  -0.000226
   74  H  5  S   -1.208433  -0.175833  -4.244867   6.554154   2.820414
   75  H  5  X   -0.018447   0.120361  -0.009942   0.014600  -0.010875
   76  H  5  Y   -0.009148  -0.003895   0.669856  -0.420532   0.139740
   77  H  5  Z    0.104192   0.021473  -0.421685   0.162738   0.435803

                     21         22         23         24         25
                    0.1685     0.1955     0.2193     0.2533     0.2858
                     A          A          A          A          A   
    1  C  1  S    0.049144   0.018736   0.000522  -0.005170  -0.009918
    2  C  1  S    0.157945   0.012424  -0.000014  -0.030426  -0.136490
    3  C  1  S   -2.136175  -0.559776   0.015222   0.752659   0.400809
    4  C  1  X   -0.002973  -0.000416   0.002387   0.002799   0.001524
    5  C  1  Y   -0.065889   0.123512  -0.019950  -0.199683   0.009003
    6  C  1  Z   -0.061777  -0.020547   0.000522   0.075055  -0.013726
    7  C  1  X   -0.007104  -0.028256  -0.068405   0.006208   0.002100
    8  C  1  Y   -0.092110   0.602976  -0.041418  -0.224284   0.088719
    9  C  1  Z   -1.019462   1.222658   0.104541   0.739454   2.421622
   10  C  1 XX    0.014358  -0.024898  -0.002038  -0.015147  -0.023660
   11  C  1 YY   -0.005931   0.025906   0.001270   0.017187  -0.073759
   12  C  1 ZZ   -0.008427  -0.001009   0.000768  -0.002040   0.097419
   13  C  1 XY   -0.000847  -0.000839   0.047393  -0.004030   0.001524
   14  C  1 XZ    0.001312  -0.001220  -0.002572   0.000208   0.000778
   15  C  1 YZ   -0.037645   0.037324  -0.003780  -0.031667  -0.012990
   16  C  1  S  -18.313218 -20.850146  -1.083870 -10.344553   2.280767
   17  C  1  X   -0.005130  -0.050110   0.018840   0.034735   0.017782
   18  C  1  Y   -0.146775   2.487993  -0.079662  -1.748864  -0.960688
   19  C  1  Z   -6.201860  -5.906483  -0.316655  -2.266248   4.001350
   20  C  1 XX    0.179555   0.120200   0.001451   0.084686  -0.275811
   21  C  1 YY    0.142011  -0.560094  -0.021726  -0.204143   0.125798
   22  C  1 ZZ   -0.321566   0.439894   0.020275   0.119457   0.150012
   23  C  1 XY    0.001595   0.018387  -0.178251   0.028017  -0.020576
   24  C  1 XZ   -0.008943  -0.007415  -0.017045  -0.013455  -0.002947
   25  C  1 YZ    0.448781  -0.195202   0.061949   0.862045   0.208931
   26  C  2  S   -0.045726  -0.017666  -0.000462  -0.004359   0.034135
   27  C  2  S   -0.198017  -0.048761  -0.001339  -0.000602   0.162529
   28  C  2  S    1.625522  -0.517397  -0.011157  -0.350266  -0.658853
   29  C  2  X    0.006654  -0.009705  -0.040753  -0.008962   0.006644
   30  C  2  Y   -0.038782   0.063298   0.016531   0.287610  -0.038958
   31  C  2  Z   -0.109899  -0.006150  -0.003558   0.021239  -0.249193
   32  C  2  X    0.005082  -0.041465  -0.234430  -0.020975  -0.012307
   33  C  2  Y   -0.154719   0.791494   0.050247   0.379753   0.421760
   34  C  2  Z   -1.213178   1.127731   0.092359   0.779814   1.584103
   35  C  2 XX   -0.016247   0.012169  -0.001277   0.014601   0.029307
   36  C  2 YY    0.011475   0.003584   0.001680  -0.021634   0.021485
   37  C  2 ZZ    0.004772  -0.015753  -0.000403   0.007033  -0.050792
   38  C  2 XY   -0.002511   0.001342   0.021958   0.000443  -0.000942
   39  C  2 XZ   -0.000388   0.002251   0.009147  -0.000459  -0.000166
   40  C  2 YZ    0.017993  -0.052552   0.002663   0.010227  -0.007593
   41  C  2  S   18.533875  21.001639   1.105490  10.989520  -3.974011
   42  C  2  X    0.099594   0.032678  -0.167043  -0.045975  -0.049991
   43  C  2  Y   -1.683492  -1.007384   0.003253   1.604199   1.290323
   44  C  2  Z   -6.145612  -5.247200  -0.343250  -2.411452   1.581663
   45  C  2 XX   -0.185343  -0.163627  -0.002516  -0.002723   0.185222
   46  C  2 YY   -0.168663   0.200362   0.031848   0.198732   0.182254
   47  C  2 ZZ    0.354006  -0.036735  -0.029332  -0.196009  -0.367476
   48  C  2 XY   -0.008877  -0.012414   0.255481  -0.031744   0.003914
   49  C  2 XZ   -0.007806  -0.027816  -0.113401  -0.007188  -0.006424
   50  C  2 YZ    0.337677   0.277687   0.038847   0.614279   0.332231
   51  H  3  S    0.177620  -0.180551   0.001121  -0.091215  -0.024191
   52  H  3  S   -0.263750  -3.017649  -0.265154  -2.912602  -2.148035
   53  H  3  X   -0.000381  -0.000301  -0.004134   0.000650  -0.000290
   54  H  3  Y    0.013071  -0.002328   0.000360  -0.003087   0.002398
   55  H  3  Z    0.004959  -0.007269  -0.000067  -0.004606  -0.012227
   56  H  3  S    3.152132   1.720730   0.182565   0.160697  -2.668978
   57  H  3  X   -0.042783  -0.030666   0.519807  -0.034047  -0.081962
   58  H  3  Y    0.596117   0.624426   0.058107  -0.242482   0.710933
   59  H  3  Z    0.158349  -0.197684   0.049296   0.218263   0.243552
   60  H  4  S   -0.159390   0.216501  -0.007600   0.014054   0.017181
   61  H  4  S   -0.605094   3.607485  -0.044421  -0.782403   1.192674
   62  H  4  X   -0.000562   0.000253  -0.000717   0.000211  -0.000352
   63  H  4  Y    0.019867   0.001707   0.000955   0.000006   0.015437
   64  H  4  Z    0.022235  -0.001607   0.001950   0.024545  -0.008864
   65  H  4  S   -2.012700   0.918786  -0.073764  -0.459355   0.908600
   66  H  4  X    0.011002  -0.004684  -0.731599   0.076320  -0.031389
   67  H  4  Y    0.135352   0.194881  -0.005693  -0.337669   0.592849
   68  H  4  Z    0.221710   0.133031   0.040647   0.418761  -0.848028
   69  H  5  S    0.029357  -0.054565   0.011979   0.155878   0.046750
   70  H  5  S    1.536464   1.087103   0.273531   2.736880   1.915501
   71  H  5  X    0.000103   0.000030   0.003170  -0.000549   0.000362
   72  H  5  Y   -0.015794   0.002063   0.000518   0.016373  -0.012616
   73  H  5  Z   -0.007798   0.016135  -0.001976  -0.017868  -0.017417
   74  H  5  S   -1.441235  -3.094219  -0.113370   0.014456   2.688806
   75  H  5  X   -0.014369   0.003557   0.833069  -0.066038   0.017750
   76  H  5  Y   -0.472047  -0.049859  -0.019793  -0.033048  -0.832610
   77  H  5  Z   -0.036208   0.606079  -0.021661  -0.526378  -0.866077

                     26         27         28         29         30
                    0.3083     0.3150     0.3554     0.3770     0.4045
                     A          A          A          A          A   
    1  C  1  S   -0.003988  -0.030118   0.000303  -0.019664   0.040319
    2  C  1  S   -0.017794  -0.127638  -0.000804  -0.058936  -0.017091
    3  C  1  S    0.167886   1.429544  -0.026465   1.778810  -2.136841
    4  C  1  X   -0.057000   0.015846  -0.246818  -0.008035  -0.003052
    5  C  1  Y   -0.019835  -0.138997  -0.004249   0.279764   0.054693
    6  C  1  Z   -0.034690  -0.249187   0.000524  -0.075902  -0.000131
    7  C  1  X   -0.346381   0.025126  -0.969136  -0.058668  -0.018708
    8  C  1  Y    0.047861   0.217683  -0.006618   3.094245   0.297462
    9  C  1  Z    0.360617   2.281944  -0.053719   1.737439  -1.812237
   10  C  1 XX   -0.002217  -0.026821  -0.000215  -0.013438   0.018448
   11  C  1 YY   -0.003913   0.001469   0.000566   0.006289   0.008351
   12  C  1 ZZ    0.006130   0.025352  -0.000351   0.007150  -0.026799
   13  C  1 XY   -0.034596   0.003134   0.011009  -0.000317  -0.000128
   14  C  1 XZ   -0.017994   0.003085  -0.029582   0.000915  -0.000046
   15  C  1 YZ   -0.004047  -0.023048  -0.001092  -0.050502  -0.009998
   16  C  1  S    1.109281   5.184705  -0.019641   0.101413  -6.294829
   17  C  1  X   -0.085555   0.105803  -1.113530  -0.084859  -0.056260
   18  C  1  Y   -0.535304  -3.595365  -0.026326   4.833325   1.585456
   19  C  1  Z    0.392255   1.490422   0.004338  -0.063985  -1.789973
   20  C  1 XX   -0.049419  -0.076778   0.016597  -0.075636   0.528141
   21  C  1 YY   -0.046417  -0.554759   0.010285  -0.336480   0.612745
   22  C  1 ZZ    0.095836   0.631537  -0.026882   0.412115  -1.140886
   23  C  1 XY    0.515756  -0.055171  -0.226131   0.014125   0.025408
   24  C  1 XZ   -0.003865  -0.042254   0.076572   0.002987  -0.001577
   25  C  1 YZ    0.147844   1.049890   0.012951   0.323730   0.267820
   26  C  2  S    0.005004   0.027305  -0.000202   0.010461   0.032354
   27  C  2  S    0.019901   0.108244  -0.000872   0.028413  -0.012662
   28  C  2  S   -0.255971  -1.543139   0.041319  -0.566962  -0.262847
   29  C  2  X   -0.111662   0.017424   0.044196  -0.001641   0.006966
   30  C  2  Y    0.000387   0.034465  -0.003441   0.034634  -0.203326
   31  C  2  Z   -0.004182   0.019795   0.001624  -0.017675   0.034305
   32  C  2  X   -0.628674   0.102954   0.447534  -0.043623   0.106011
   33  C  2  Y   -0.104767  -0.499275  -0.032385   0.166039  -2.257957
   34  C  2  Z    0.430188   2.968732  -0.054985   2.024492  -2.955024
   35  C  2 XX    0.001594   0.028571   0.000711   0.007346   0.005487
   36  C  2 YY    0.010360   0.050850  -0.000731   0.011112  -0.021029
   37  C  2 ZZ   -0.011954  -0.079421   0.000020  -0.018458   0.015542
   38  C  2 XY    0.034845  -0.005825  -0.010165  -0.000127   0.002240
   39  C  2 XZ    0.024648  -0.002006   0.015226  -0.000212   0.000535
   40  C  2 YZ   -0.001985  -0.021042  -0.000206   0.006039  -0.007358
   41  C  2  S   -0.903000  -4.174838  -0.065557   0.599497   0.734484
   42  C  2  X   -0.480464  -0.052530   0.536666  -0.010881   0.132784
   43  C  2  Y    0.398630   2.620106  -0.011318  -0.623597  -2.751926
   44  C  2  Z    0.645408   3.898508   0.016082   0.613718  -1.912559
   45  C  2 XX    0.071540   0.350707   0.012963   0.146826   0.897110
   46  C  2 YY    0.023772   0.376750  -0.025660   0.768368  -0.957992
   47  C  2 ZZ   -0.095312  -0.727457   0.012697  -0.915193   0.060882
   48  C  2 XY   -0.360757   0.044255  -0.180100  -0.025627   0.104074
   49  C  2 XZ   -0.170750  -0.030278   0.326592  -0.014329  -0.001095
   50  C  2 YZ    0.152807   1.144568   0.017916   0.730122   0.121219
   51  H  3  S   -0.007068  -0.020604   0.000580   0.053465  -0.034676
   52  H  3  S   -0.431557  -2.926033   0.104528  -3.275017   6.781320
   53  H  3  X    0.004887  -0.000330   0.000123   0.000031  -0.000020
   54  H  3  Y   -0.000034  -0.000657   0.000001   0.000424   0.002045
   55  H  3  Z   -0.005219  -0.034265   0.000045  -0.009673   0.008909
   56  H  3  S   -0.521844  -2.872807   0.004513  -0.572646   3.009271
   57  H  3  X    1.500574  -0.264326  -0.382570  -0.039318   0.103047
   58  H  3  Y    0.219233   1.021991  -0.026231   0.480438  -1.426604
   59  H  3  Z   -0.142960  -1.063121  -0.026987   0.741093  -0.885623
   60  H  4  S   -0.012363  -0.050891   0.001356   0.026369   0.039109
   61  H  4  S   -0.052013  -0.575603  -0.029337   4.299997   0.159264
   62  H  4  X    0.005072  -0.000205  -0.011974  -0.000146  -0.000525
   63  H  4  Y    0.000738  -0.000993  -0.000104   0.005064   0.003883
   64  H  4  Z    0.000460   0.004147   0.000150   0.002928   0.000772
   65  H  4  S   -0.171405  -1.315676  -0.005754   4.140078   0.207646
   66  H  4  X    1.275247  -0.179010   0.719697   0.015243   0.049825
   67  H  4  Y    0.087884   0.136263  -0.003187  -0.101134  -0.291398
   68  H  4  Z    0.095067   0.772658  -0.010723   1.550250  -0.437788
   69  H  5  S    0.002386   0.045311   0.002265   0.008268   0.021955
   70  H  5  S    0.422994   3.311941   0.003322  -2.649261   0.521509
   71  H  5  X   -0.006410   0.000761  -0.010070  -0.000424   0.000207
   72  H  5  Y    0.000196   0.008293   0.000035   0.014480   0.000546
   73  H  5  Z   -0.004834  -0.032579  -0.000201  -0.018251   0.001671
   74  H  5  S    0.599273   3.641303   0.033096  -3.844910  -0.954965
   75  H  5  X   -0.461238   0.047590   1.620076   0.007612  -0.026729
   76  H  5  Y   -0.103291  -0.543349   0.027592  -0.406084  -0.217885
   77  H  5  Z    0.025689   0.405782  -0.011456  -0.911354  -0.195103

                     31         32         33         34         35
                    0.4382     0.4436     0.4483     0.4762     0.4834
                     A          A          A          A          A   
    1  C  1  S    0.064990   0.011230   0.003619   0.021997   0.000684
    2  C  1  S    0.030414  -0.049829  -0.002984  -0.024759   0.029871
    3  C  1  S   -4.162571   0.920391   0.070727  -2.179469   0.034216
    4  C  1  X   -0.001910  -0.050292   0.244693   0.015824   0.043713
    5  C  1  Y    0.025801  -0.063645  -0.000191  -0.134939  -0.047849
    6  C  1  Z    0.080386  -0.003951   0.017929  -0.008205   0.076701
    7  C  1  X   -0.018002  -0.350438   1.778815   0.154132   0.263838
    8  C  1  Y   -0.617278   1.190677   0.572977  -3.570861   0.800768
    9  C  1  Z    5.949035   3.674364   0.772902  -0.744177   0.896544
   10  C  1 XX    0.017706  -0.008852  -0.000154  -0.012820   0.001891
   11  C  1 YY   -0.026589  -0.004847  -0.002046   0.012793  -0.002451
   12  C  1 ZZ    0.008882   0.013699   0.002200   0.000027   0.000560
   13  C  1 XY    0.001023  -0.001012   0.002076  -0.000656   0.005016
   14  C  1 XZ   -0.000002   0.000668  -0.013814  -0.001566   0.031127
   15  C  1 YZ    0.020507   0.011556  -0.001143  -0.012898  -0.015029
   16  C  1  S   -6.846642  -3.805271  -1.356707   3.534672  -1.113180
   17  C  1  X   -0.014118  -0.217114   1.117854   0.068160  -0.174692
   18  C  1  Y   -0.586747   1.620270   0.471500  -0.768514   0.336710
   19  C  1  Z    1.106580   0.213147  -0.044388   0.789412  -0.018987
   20  C  1 XX    0.583182   0.245446   0.108890  -0.453155   0.052761
   21  C  1 YY   -1.957113  -0.743458  -0.150214   0.484789  -0.124484
   22  C  1 ZZ    1.373932   0.498012   0.041324  -0.031634   0.071723
   23  C  1 XY    0.040690   0.071956  -0.250482  -0.056265   0.315512
   24  C  1 XZ   -0.011209   0.164555  -0.097630   0.048822  -1.395686
   25  C  1 YZ    0.593671  -2.607116  -0.460509  -0.150561  -0.458483
   26  C  2  S    0.062861   0.027908   0.003005   0.053857   0.005003
   27  C  2  S    0.000042  -0.022700  -0.011671   0.012929  -0.027892
   28  C  2  S   -6.494139  -2.423831  -0.333795  -4.312311  -0.963881
   29  C  2  X    0.001222   0.027517  -0.252726  -0.010695   0.249161
   30  C  2  Y    0.128460   0.064458   0.005154  -0.137371   0.001490
   31  C  2  Z    0.027426  -0.083525   0.001945  -0.174980   0.047398
   32  C  2  X    0.042148  -0.083019  -0.712915   0.045520   1.507378
   33  C  2  Y   -0.691702   3.190355   0.510435  -1.438389   0.146168
   34  C  2  Z    3.096146   2.755591   0.604193  -2.329002   0.789345
   35  C  2 XX    0.033246  -0.000896  -0.000571  -0.010940  -0.003053
   36  C  2 YY   -0.012526   0.026748   0.004853   0.016737   0.004439
   37  C  2 ZZ   -0.020720  -0.025853  -0.004281  -0.005798  -0.001385
   38  C  2 XY    0.001900  -0.002334   0.004120  -0.001358  -0.004422
   39  C  2 XZ    0.000954   0.000915  -0.015247  -0.002186  -0.001667
   40  C  2 YZ   -0.020358   0.053902   0.009705   0.013756   0.012143
   41  C  2  S   -0.741088   1.329602   0.757727  -4.631345   0.811775
   42  C  2  X    0.016465   0.147164  -1.168996  -0.042847   0.528932
   43  C  2  Y    0.507385   0.038883  -0.074278  -0.237759  -0.029137
   44  C  2  Z   -0.230442  -0.124023  -0.128001   0.142970  -0.089882
   45  C  2 XX    0.041721   0.220764   0.082580  -0.142275  -0.151000
   46  C  2 YY    0.521539   1.355708   0.141993   0.100349  -0.040439
   47  C  2 ZZ   -0.563260  -1.576472  -0.224573   0.041926   0.191439
   48  C  2 XY    0.005582  -0.024976  -0.664989  -0.031791   0.953457
   49  C  2 XZ    0.002673  -0.180003   1.037598   0.094840   0.262915
   50  C  2 YZ   -0.387274  -0.826083  -0.038743  -0.348648   0.263357
   51  H  3  S   -0.093003   0.183739   0.035206   0.132051   0.059671
   52  H  3  S    1.189406  -3.177435  -0.753091   6.395415  -0.272944
   53  H  3  X    0.000761   0.001084  -0.017111  -0.002253   0.021695
   54  H  3  Y   -0.018825   0.013162   0.000709   0.029404   0.003686
   55  H  3  Z   -0.020594   0.025121   0.005060   0.003769   0.010201
   56  H  3  S   -0.035564  -0.203707  -0.028964   0.882317  -0.036711
   57  H  3  X   -0.005223  -0.043191   0.739441   0.182981  -1.370310
   58  H  3  Y   -0.419837  -0.184766   0.125753  -3.211533   0.068003
   59  H  3  Z   -0.081241   1.451325   0.191626  -0.995440  -0.549766
   60  H  4  S   -0.044117  -0.080000  -0.021837   0.013737  -0.073476
   61  H  4  S    6.229607   9.156970   2.203603  -5.649723   2.019239
   62  H  4  X   -0.000169  -0.002309   0.016737   0.000956  -0.004817
   63  H  4  Y    0.007237  -0.018093  -0.002643   0.003939   0.001462
   64  H  4  Z   -0.006157  -0.012195   0.000139  -0.000249   0.014133
   65  H  4  S    1.425513   1.857863   0.467989  -0.866673   0.244747
   66  H  4  X   -0.026359   0.193511  -1.289015  -0.027881  -0.155716
   67  H  4  Y    1.138205   2.951440   0.629157  -1.566348   0.466318
   68  H  4  Z    1.837257   0.104114   0.077601  -1.209443   0.011305
   69  H  5  S   -0.178022   0.090467   0.016641   0.112904   0.038644
   70  H  5  S    9.064783  -2.631223  -0.679976   4.622395  -0.728150
   71  H  5  X    0.000228  -0.002447   0.007899  -0.000394   0.012985
   72  H  5  Y   -0.007046  -0.005476  -0.001010   0.022793   0.004116
   73  H  5  Z    0.007227  -0.004022  -0.001638   0.002825  -0.004229
   74  H  5  S    1.535619  -0.545040  -0.187488   0.812702  -0.073939
   75  H  5  X    0.042572   0.107270  -0.430741   0.068002  -1.117825
   76  H  5  Y   -2.084852   1.498657   0.331014  -2.533269   0.105670
   77  H  5  Z    1.151706   0.960618   0.055912   1.419260  -0.092837

                     36         37         38         39         40
                    0.4876     0.4930     0.5051     0.5566     0.5629
                     A          A          A          A          A   
    1  C  1  S    0.014216   0.103986  -0.026048   0.076578   0.018033
    2  C  1  S   -0.103405  -0.002543  -0.028871   0.023240   0.004903
    3  C  1  S   -1.851370  -8.234485   4.398247  -8.226060  -1.773119
    4  C  1  X    0.020624  -0.006161   0.004019   0.003259  -0.072095
    5  C  1  Y    0.167304   0.001748  -0.108613  -0.059961  -0.007111
    6  C  1  Z   -0.226070   0.329867  -0.091450  -0.138331  -0.035339
    7  C  1  X    0.230312  -0.011454   0.239272   0.252737  -1.351202
    8  C  1  Y   -0.300903  -0.987057  -7.079475  -0.129219  -0.097539
    9  C  1  Z   -2.794090  -2.572098   1.431966  -1.502749  -0.686830
   10  C  1 XX   -0.010601   0.008928  -0.006449   0.026767   0.006112
   11  C  1 YY    0.013957   0.031161  -0.009001  -0.007885  -0.002050
   12  C  1 ZZ   -0.003356  -0.040090   0.015450  -0.018883  -0.004062
   13  C  1 XY    0.001094  -0.000370   0.000497   0.001683  -0.002445
   14  C  1 XZ    0.005998  -0.000267   0.001243  -0.011338   0.054617
   15  C  1 YZ    0.053473  -0.003366   0.013810  -0.027904  -0.003657
   16  C  1  S    4.582799  -5.218030  -4.760640 -14.321687  -3.641572
   17  C  1  X   -0.004471   0.001772   0.043195   0.021601  -0.227740
   18  C  1  Y   -0.118616  -0.591261  -1.876912   0.884543   0.213855
   19  C  1  Z    0.423157  -0.220243  -0.977952  -4.721203  -1.203317
   20  C  1 XX   -0.317059   0.318068   0.554994  -0.071485   0.107470
   21  C  1 YY    0.572910   2.634753  -0.681959  -1.785766  -0.364964
   22  C  1 ZZ   -0.255851  -2.952820   0.126965   1.857251   0.257494
   23  C  1 XY    0.052336  -0.050744   0.079146   0.333459  -1.579399
   24  C  1 XZ   -0.398540   0.013538  -0.114811   0.392218  -2.131064
   25  C  1 YZ    0.733280   0.378691   0.271873   0.222559   0.053061
   26  C  2  S   -0.005431  -0.088227  -0.030224  -0.049746  -0.013241
   27  C  2  S    0.088556  -0.083880  -0.008324   0.132064   0.027196
   28  C  2  S    2.251375  10.087039   2.697747   2.799925   0.951805
   29  C  2  X    0.049558  -0.003086   0.004766  -0.076384   0.309439
   30  C  2  Y    0.069734  -0.021809  -0.016803  -0.000065   0.003709
   31  C  2  Z   -0.188375   0.180804  -0.004002  -0.076573  -0.019289
   32  C  2  X    0.390805  -0.086437  -0.036084  -0.277875   1.407169
   33  C  2  Y   -0.586821   1.124828   3.264753   0.585496   0.061177
   34  C  2  Z   -3.089651  -2.960055   2.582260  -1.380342  -0.619272
   35  C  2 XX    0.010278  -0.049625   0.003550   0.010221   0.002245
   36  C  2 YY   -0.013198   0.004630   0.006613  -0.026752  -0.006806
   37  C  2 ZZ    0.002921   0.044996  -0.010162   0.016530   0.004560
   38  C  2 XY    0.001722  -0.002046  -0.000774   0.007699  -0.026570
   39  C  2 XZ   -0.000546  -0.000269  -0.001406  -0.004473   0.032852
   40  C  2 YZ   -0.030551   0.007409   0.009333  -0.014434  -0.002044
   41  C  2  S   -4.438474   5.459754   5.757426  15.277592   3.910712
   42  C  2  X    0.119380  -0.021981  -0.025269  -0.036854   0.390612
   43  C  2  Y   -0.234744   0.468605   0.958829  -1.145604  -0.270640
   44  C  2  Z    0.389480  -0.731819  -0.704788  -3.699188  -0.983119
   45  C  2 XX    0.216786  -0.336267  -0.023521  -0.363786  -0.096500
   46  C  2 YY    0.290200  -0.528443   1.488797  -0.916688  -0.202876
   47  C  2 ZZ   -0.506986   0.864710  -1.465276   1.280474   0.299377
   48  C  2 XY    0.232254  -0.015347   0.012178   0.032191  -0.050010
   49  C  2 XZ    0.212949  -0.033786   0.091918   0.319342  -1.876580
   50  C  2 YZ   -0.920754   0.241335  -0.344701   1.043868   0.199578
   51  H  3  S   -0.177156  -0.024777   0.044817  -0.151889  -0.025215
   52  H  3  S    2.550596  -3.985365  -7.321991  -2.991987  -0.536915
   53  H  3  X    0.005730  -0.000203   0.001032   0.000240   0.001744
[...]
 II,JST,KST,LST =  2  1  1  1 NREC =         1 INTLOC =    1
 II,JST,KST,LST =  3  1  1  1 NREC =         1 INTLOC =    1
 II,JST,KST,LST =  4  1  1  1 NREC =         1 INTLOC =    1
 II,JST,KST,LST =  5  1  1  1 NREC =         1 INTLOC =    1
 II,JST,KST,LST =  6  1  1  1 NREC =         1 INTLOC =   88
 II,JST,KST,LST =  7  1  1  1 NREC =         1 INTLOC =   88
 II,JST,KST,LST =  8  1  1  1 NREC =         1 INTLOC =   88
 II,JST,KST,LST =  9  1  1  1 NREC =         1 INTLOC =  628
 II,JST,KST,LST = 10  1  1  1 NREC =         1 INTLOC =  628
 II,JST,KST,LST = 11  1  1  1 NREC =         1 INTLOC =  628
 II,JST,KST,LST = 12  1  1  1 NREC =         1 INTLOC = 1046
 II,JST,KST,LST = 13  1  1  1 NREC =         1 INTLOC = 1046
 II,JST,KST,LST = 14  1  1  1 NREC =         1 INTLOC = 1894
 II,JST,KST,LST = 15  1  1  1 NREC =         1 INTLOC = 1894
 II,JST,KST,LST = 16  1  1  1 NREC =         1 INTLOC =11779
 II,JST,KST,LST = 17  1  1  1 NREC =         1 INTLOC =11779
 II,JST,KST,LST = 18  1  1  1 NREC =         1 INTLOC =11779
 II,JST,KST,LST = 19  1  1  1 NREC =         1 INTLOC =11779
 II,JST,KST,LST = 20  1  1  1 NREC =         3 INTLOC = 3078
 II,JST,KST,LST = 21  1  1  1 NREC =         3 INTLOC = 3078
 II,JST,KST,LST = 22  1  1  1 NREC =         3 INTLOC = 3078
 II,JST,KST,LST = 23  1  1  1 NREC =         3 INTLOC = 3078
 II,JST,KST,LST = 24  1  1  1 NREC =         3 INTLOC = 3078
 II,JST,KST,LST = 25  1  1  1 NREC =         3 INTLOC = 3078
 II,JST,KST,LST = 26  1  1  1 NREC =         3 INTLOC = 3078
 II,JST,KST,LST = 27  1  1  1 NREC =         3 INTLOC = 3078
 II,JST,KST,LST = 28  1  1  1 NREC =         4 INTLOC = 1122
 II,JST,KST,LST = 29  1  1  1 NREC =         4 INTLOC =12748
 II,JST,KST,LST = 30  1  1  1 NREC =         6 INTLOC = 4512
 II,JST,KST,LST = 31  1  1  1 NREC =         6 INTLOC = 4512
 II,JST,KST,LST = 32  1  1  1 NREC =         7 INTLOC =12793
 II,JST,KST,LST = 33  1  1  1 NREC =         8 INTLOC =11592
 II,JST,KST,LST = 34  1  1  1 NREC =        13 INTLOC = 1228
 II,JST,KST,LST = 35  1  1  1 NREC =        13 INTLOC = 9105
 II,JST,KST,LST = 36  1  1  1 NREC =        13 INTLOC =14656
 II,JST,KST,LST = 37  1  1  1 NREC =        16 INTLOC = 7867
 II,JST,KST,LST = 38  1  1  1 NREC =        22 INTLOC = 9308
 II,JST,KST,LST = 39  1  1  1 NREC =        22 INTLOC = 9308
 II,JST,KST,LST = 40  1  1  1 NREC =        30 INTLOC =12936
 II,JST,KST,LST = 41  1  1  1 NREC =        31 INTLOC =11953
 II,JST,KST,LST = 42  1  1  1 NREC =        36 INTLOC =11352
 II,JST,KST,LST = 43  1  1  1 NREC =        46 INTLOC = 6135
 II,JST,KST,LST = 44  1  1  1 NREC =        47 INTLOC = 8674
 II,JST,KST,LST = 45  1  1  1 NREC =        49 INTLOC = 9364
 II,JST,KST,LST = 46  1  1  1 NREC =        57 INTLOC =10595
 II,JST,KST,LST = 47  1  1  1 NREC =        59 INTLOC = 5347
 II,JST,KST,LST = 48  1  1  1 NREC =        69 INTLOC = 4739
 II,JST,KST,LST = 49  1  1  1 NREC =        82 INTLOC = 7458
 II,JST,KST,LST = 50  1  1  1 NREC =        89 INTLOC = 4519
 II,JST,KST,LST = 51  1  1  1 NREC =       100 INTLOC = 3941
 II,JST,KST,LST = 52  1  1  1 NREC =       157 INTLOC = 9974
 II,JST,KST,LST = 53  1  1  1 NREC =       157 INTLOC = 9974
 II,JST,KST,LST = 54  1  1  1 NREC =       157 INTLOC = 9974
 II,JST,KST,LST = 55  1  1  1 NREC =       161 INTLOC =10954
 II,JST,KST,LST = 56  1  1  1 NREC =       166 INTLOC = 7618
 II,JST,KST,LST = 57  1  1  1 NREC =       197 INTLOC =11526
 II,JST,KST,LST = 58  1  1  1 NREC =       197 INTLOC =11526
 II,JST,KST,LST = 59  1  1  1 NREC =       205 INTLOC =14492
 II,JST,KST,LST = 60  1  1  1 NREC =       215 INTLOC =11255
 II,JST,KST,LST = 61  1  1  1 NREC =       223 INTLOC = 4954
 II,JST,KST,LST = 62  1  1  1 NREC =       259 INTLOC = 3172
 II,JST,KST,LST = 63  1  1  1 NREC =       265 INTLOC = 4476
 II,JST,KST,LST = 64  1  1  1 NREC =       267 INTLOC = 1164
 II,JST,KST,LST = 65  1  1  1 NREC =       283 INTLOC =12586
 II,JST,KST,LST = 66  1  1  1 NREC =       287 INTLOC = 1856
 SCHWARZ INEQUALITY TEST SKIPPED       39105 INTEGRAL BLOCKS.
 TOTAL NUMBER OF NONZERO TWO-ELECTRON INTEGRALS =            67058593
       4477 INTEGRAL RECORDS WERE STORED ON DISK FILE  8.
  ...... END OF TWO-ELECTRON INTEGRALS .....
 CPU     0: STEP CPU TIME=     0.26 TOTAL CPU TIME=         23.4 (      0.4 MIN)
 TOTAL WALL CLOCK TIME=         23.9 SECONDS, CPU UTILIZATION IS    98.24%

          ---------------------------------------------
          MONOMER ELECTROSTATIC INTERACTION (OWN BASIS)
          ---------------------------------------------

          -------------
          GUESS OPTIONS
          -------------
          GUESS =MOSAVED           NORB  =       0          NORDER=       0
          MIX   =       F          PRTMO =       F          PUNMO =       F
          TOLZ  = 1.0E-08          TOLE  = 1.0E-05
          SYMDEN=       F          PURIFY=       F

 INITIAL GUESS ORBITALS GENERATED BY MOSAVED  ROUTINE.

 STATISTICS FOR GENERATION OF SYMMETRY ORBITAL -Q- MATRIX
 NUMBER OF CARTESIAN ATOMIC ORBITALS=        154
 NUMBER OF SPHERICAL CONTAMINANTS DROPPED=     8
 NUMBER OF LINEARLY DEPENDENT MOS DROPPED=     0
 TOTAL NUMBER OF MOS IN VARIATION SPACE=     146
 ...... END OF INITIAL ORBITAL SELECTION ......
 CPU     0: STEP CPU TIME=     0.01 TOTAL CPU TIME=         23.4 (      0.4 MIN)
 TOTAL WALL CLOCK TIME=         23.9 SECONDS, CPU UTILIZATION IS    98.24%

          ---------------------------
                  UHF SCF CALCULATION
          ---------------------------

 FINAL UHF ENERGY IS     -155.2979307617 AFTER   1 ITERATIONS
 ...... END OF UHF CALCULATION ......
 CPU     0: STEP CPU TIME=     0.08 TOTAL CPU TIME=         23.5 (      0.4 MIN)
 TOTAL WALL CLOCK TIME=         23.9 SECONDS, CPU UTILIZATION IS    98.24%

          -------------
          GUESS OPTIONS
          -------------
          GUESS =MOSAVED           NORB  =       0          NORDER=       0
          MIX   =       F          PRTMO =       F          PUNMO =       F
          TOLZ  = 1.0E-08          TOLE  = 1.0E-05
          SYMDEN=       F          PURIFY=       F

 INITIAL GUESS ORBITALS GENERATED BY MOSAVED  ROUTINE.

 STATISTICS FOR GENERATION OF SYMMETRY ORBITAL -Q- MATRIX
 NUMBER OF CARTESIAN ATOMIC ORBITALS=        154
 NUMBER OF SPHERICAL CONTAMINANTS DROPPED=     8
 NUMBER OF LINEARLY DEPENDENT MOS DROPPED=     0
 TOTAL NUMBER OF MOS IN VARIATION SPACE=     146
 ...... END OF INITIAL ORBITAL SELECTION ......
 CPU     0: STEP CPU TIME=     0.01 TOTAL CPU TIME=         23.5 (      0.4 MIN)
 TOTAL WALL CLOCK TIME=         23.9 SECONDS, CPU UTILIZATION IS    98.24%

          ---------------------------
                  UHF SCF CALCULATION
          ---------------------------

 DIRECT SCF CALCULATION, SCHWRZ=T   FDIFF=T
 SCHWARZ INEQUALITY OVERHEAD:     11935 INTEGRALS, T=        0.00

 FINAL UHF ENERGY IS     -331.7049462631 AFTER   1 ITERATIONS
 ...... END OF UHF CALCULATION ......
 CPU     0: STEP CPU TIME=     0.27 TOTAL CPU TIME=         23.8 (      0.4 MIN)
 TOTAL WALL CLOCK TIME=         24.2 SECONDS, CPU UTILIZATION IS    98.23%

 XEDA STEP ENERGY SUMMATION
 ETOT =       -155.29793076     ENUC =        102.94817979
 EEXCH=        -22.94525443

          --------------------------------------------------
          MONOMER EXCHANGE-REPULSION INTERACTION (OWN BASIS)
          --------------------------------------------------

          -------------
          GUESS OPTIONS
          -------------
          GUESS =MOSAVED           NORB  =       0          NORDER=       0
          MIX   =       F          PRTMO =       F          PUNMO =       F
          TOLZ  = 1.0E-08          TOLE  = 1.0E-05
          SYMDEN=       F          PURIFY=       F

 INITIAL GUESS ORBITALS GENERATED BY MOSAVED  ROUTINE.

 STATISTICS FOR GENERATION OF SYMMETRY ORBITAL -Q- MATRIX
 NUMBER OF CARTESIAN ATOMIC ORBITALS=        154
 NUMBER OF SPHERICAL CONTAMINANTS DROPPED=     8
 NUMBER OF LINEARLY DEPENDENT MOS DROPPED=     0
 TOTAL NUMBER OF MOS IN VARIATION SPACE=     146
 ...... END OF INITIAL ORBITAL SELECTION ......
 CPU     0: STEP CPU TIME=     0.01 TOTAL CPU TIME=         23.8 (      0.4 MIN)
 TOTAL WALL CLOCK TIME=         24.2 SECONDS, CPU UTILIZATION IS    98.23%

          ---------------------------
                  UHF SCF CALCULATION
          ---------------------------

 FINAL UHF ENERGY IS     -154.6289545751 AFTER   1 ITERATIONS
 ...... END OF UHF CALCULATION ......
 CPU     0: STEP CPU TIME=     0.08 TOTAL CPU TIME=         23.9 (      0.4 MIN)
 TOTAL WALL CLOCK TIME=         24.3 SECONDS, CPU UTILIZATION IS    98.23%

 XEDA STEP ENERGY SUMMATION
 ETOT =       -154.62895458     ENUC =        102.94817979

          ---------------------------------------------
          MONOMER ELECTROSTATIC INTERACTION (ALL BASIS)
          ---------------------------------------------

          -------------
          GUESS OPTIONS
          -------------
          GUESS =MOSAVED           NORB  =       0          NORDER=       0
          MIX   =       F          PRTMO =       F          PUNMO =       F
          TOLZ  = 1.0E-08          TOLE  = 1.0E-05
          SYMDEN=       F          PURIFY=       F

 INITIAL GUESS ORBITALS GENERATED BY MOSAVED  ROUTINE.

 STATISTICS FOR GENERATION OF SYMMETRY ORBITAL -Q- MATRIX
 NUMBER OF CARTESIAN ATOMIC ORBITALS=        154
 NUMBER OF SPHERICAL CONTAMINANTS DROPPED=     8
 NUMBER OF LINEARLY DEPENDENT MOS DROPPED=     0
 TOTAL NUMBER OF MOS IN VARIATION SPACE=     146
 ...... END OF INITIAL ORBITAL SELECTION ......
 CPU     0: STEP CPU TIME=     0.01 TOTAL CPU TIME=         23.9 (      0.4 MIN)
 TOTAL WALL CLOCK TIME=         24.3 SECONDS, CPU UTILIZATION IS    98.23%

          ---------------------------
                  UHF SCF CALCULATION
          ---------------------------

 FINAL UHF ENERGY IS     -155.3049494080 AFTER   1 ITERATIONS
 ...... END OF UHF CALCULATION ......
 CPU     0: STEP CPU TIME=     0.08 TOTAL CPU TIME=         24.0 (      0.4 MIN)
 TOTAL WALL CLOCK TIME=         24.4 SECONDS, CPU UTILIZATION IS    98.23%

          -------------
          GUESS OPTIONS
          -------------
          GUESS =MOSAVED           NORB  =       0          NORDER=       0
          MIX   =       F          PRTMO =       F          PUNMO =       F
          TOLZ  = 1.0E-08          TOLE  = 1.0E-05
          SYMDEN=       F          PURIFY=       F

 INITIAL GUESS ORBITALS GENERATED BY MOSAVED  ROUTINE.

 STATISTICS FOR GENERATION OF SYMMETRY ORBITAL -Q- MATRIX
 NUMBER OF CARTESIAN ATOMIC ORBITALS=        154
 NUMBER OF SPHERICAL CONTAMINANTS DROPPED=     8
 NUMBER OF LINEARLY DEPENDENT MOS DROPPED=     0
 TOTAL NUMBER OF MOS IN VARIATION SPACE=     146
 ...... END OF INITIAL ORBITAL SELECTION ......
 CPU     0: STEP CPU TIME=     0.01 TOTAL CPU TIME=         24.0 (      0.4 MIN)
 TOTAL WALL CLOCK TIME=         24.4 SECONDS, CPU UTILIZATION IS    98.23%

          ---------------------------
                  UHF SCF CALCULATION
          ---------------------------

 DIRECT SCF CALCULATION, SCHWRZ=T   FDIFF=T
 SCHWARZ INEQUALITY OVERHEAD:     11935 INTEGRALS, T=        0.00

 FINAL UHF ENERGY IS     -331.7279081515 AFTER   1 ITERATIONS
 ...... END OF UHF CALCULATION ......
 CPU     0: STEP CPU TIME=     0.27 TOTAL CPU TIME=         24.3 (      0.4 MIN)
 TOTAL WALL CLOCK TIME=         24.7 SECONDS, CPU UTILIZATION IS    98.20%

 XEDA STEP ENERGY SUMMATION
 ETOT =       -155.30494941     ENUC =        102.94817979
 EEXCH=        -22.94608537

          --------------------------------------------------
          MONOMER EXCHANGE-REPULSION INTERACTION (ALL BASIS)
          --------------------------------------------------

          -------------
          GUESS OPTIONS
          -------------
          GUESS =MOSAVED           NORB  =       0          NORDER=       0
          MIX   =       F          PRTMO =       F          PUNMO =       F
          TOLZ  = 1.0E-08          TOLE  = 1.0E-05
          SYMDEN=       F          PURIFY=       F

 INITIAL GUESS ORBITALS GENERATED BY MOSAVED  ROUTINE.

 STATISTICS FOR GENERATION OF SYMMETRY ORBITAL -Q- MATRIX
 NUMBER OF CARTESIAN ATOMIC ORBITALS=        154
 NUMBER OF SPHERICAL CONTAMINANTS DROPPED=     8
 NUMBER OF LINEARLY DEPENDENT MOS DROPPED=     0
 TOTAL NUMBER OF MOS IN VARIATION SPACE=     146
 ...... END OF INITIAL ORBITAL SELECTION ......
 CPU     0: STEP CPU TIME=     0.01 TOTAL CPU TIME=         24.3 (      0.4 MIN)
 TOTAL WALL CLOCK TIME=         24.7 SECONDS, CPU UTILIZATION IS    98.20%

          ---------------------------
                  UHF SCF CALCULATION
          ---------------------------

 FINAL UHF ENERGY IS     -154.6338685275 AFTER   1 ITERATIONS
 ...... END OF UHF CALCULATION ......
 CPU     0: STEP CPU TIME=     0.08 TOTAL CPU TIME=         24.3 (      0.4 MIN)
 TOTAL WALL CLOCK TIME=         24.8 SECONDS, CPU UTILIZATION IS    98.21%

 XEDA STEP ENERGY SUMMATION
 ETOT =       -154.63386853     ENUC =        102.94817979

          --------------------------------
          RESULTS OF INTERACTION ANALYSIS
          --------------------------------

     ENERGY TERMS
     T   ELECTRON KINETIC AND COULOMB POTENTIAL
     X   E-E EXCHANGE COMBINE WITH DIAGNANAL VALUE
     N   NUCLEUS-NUCLEUS REPULSION ENERGY

 --------------
 MONOMER ENERGY
 --------------

 MONOMER    1

                   OWN BASIS           ALL BASIS

 T              -93.95401967        -93.95439011
 X              -11.31381459        -11.31402512
 N               27.89012705         27.89012705
 EC              -0.47432746         -0.47479756
 E              -77.85203466        -77.85308574

 MONOMER    2

                   OWN BASIS           ALL BASIS

 T              -93.95399364        -93.95435645
 X              -11.31380771        -11.31402078
 N               27.89009297         27.89009297
 EC              -0.47433568         -0.47481014
 E              -77.85204405        -77.85309440

 ------------------------------------------------------------
 SUPER MOLECULE ENERGY  USING NON-ANTISYMMETRIC WAVEFUNCTION
 (ELECTROSTATIC ENERGY: T N CHANGE)
 ------------------------------------------------------------

              FROM OWN BASIS      FROM ALL BASIS
 T             -235.30085613       -235.30704383
 X              -22.62762229        -22.62804591
 N              102.94817979        102.94817979
 E             -154.98029863       -154.98690994

 ----------------------------------------------------------------------
 SUPER MOLECULE ENERGY  USING ANTISYMMETRIC NONORTHONORMAL WAVEFUNCTION
 (EXCHANGE ENERGY: ONLY X CHANGES)
 ----------------------------------------------------------------------

              FROM OWN BASIS      FROM ALL BASIS
 T             -235.30085613       -235.30704383
 X              -22.94525443        -22.94608537
 N              102.94817979        102.94817979
 E             -155.29793076       -155.30494941

 -----------------------------------------------------------------------
 SUPER MOLECULE ENERGY  USING ANTISYMMETRIC AND ORTHONORMAL WAVEFUNCTION
 (REPULSION ENERGY: T X CHANGE)
 -----------------------------------------------------------------------

              FROM OWN BASIS      FROM ALL BASIS
 T+X           -257.57713437       -257.58204832
 N              102.94817979        102.94817979
 E             -154.62895458       -154.63386853

 ---------------------------------------------
 SUPER MOLECULE ENERGY  USING SCF WAVEFUNCTION
 (POLARIZATION ENERGY: T X CHANGE)
 ---------------------------------------------
 T+X           -257.85636000
 N              102.94817979
 EC              -0.98464839
 E             -155.89282859


                   *******************************
                   SUMMARY OF INTERACTION ENERGIES
                     XEDA IN XIAMEN UNIVERSITY    
                    - ZHEN TANG AND PEIFENG SU -  
                   *******************************


 -------------
 OWN BASIS SET                                       HARTREE          KCAL/MOL
 -------------
 ELECTROSTATIC ENERGY                  ES=         -0.224883           -141.12
 EXCHANGE ENERGY                       EX=         -0.317632           -199.32
 REPULSION ENERGY                     REP=          0.668976            419.79
 POLARIZATION ENERGY                  POL=         -0.279226           -175.22
 ELECTRON CORRELATION                CORR=         -0.035985            -22.58
 TOTAL INTERACTION ENERGY               E=         -0.188750           -118.44
  

 -------------
 ALL BASIS SET                                       HARTREE          KCAL/MOL
 -------------
 ELECTROSTATIC ENERGY                  ES=         -0.230337           -144.54
 EXCHANGE ENERGY                       EX=         -0.318039           -199.57
 REPULSION ENERGY                     REP=          0.671081            421.11
 POLARIZATION ENERGY                  POL=         -0.274312           -172.13
 ELECTRON CORRELATION                CORR=         -0.035041            -21.99
 TOTAL INTERACTION ENERGY               E=         -0.186648           -117.12
  

                     ***************************
                     END OF INTERACTION ANALYSIS
                     ***************************

              1301896  WORDS OF DYNAMIC MEMORY USED
 EXECUTION OF GAMESS TERMINATED NORMALLY 14:31:21 25-DEC-2023    
 DDI: 263640 bytes (0.3 MB / 0 MWords) used by master data server.

 ----------------------------------------
 CPU timing information for all processes
 ========================================
 0: 23.623 + 0.805 = 24.429
 1: 23.443 + 0.669 = 24.112
 2: 23.424 + 0.618 = 24.43
 3: 23.154 + 0.559 = 23.713
 4: 23.455 + 0.727 = 24.182
 5: 23.468 + 0.603 = 24.71
 6: 23.396 + 0.666 = 24.62
 7: 23.370 + 0.644 = 24.15
 8: 23.137 + 0.612 = 23.749
 9: 23.301 + 0.620 = 23.921
 10: 23.430 + 0.691 = 24.122
 11: 23.434 + 0.620 = 24.54
 12: 23.246 + 0.557 = 23.804
 13: 23.415 + 0.603 = 24.19
 14: 23.467 + 0.677 = 24.144
 15: 23.352 + 0.621 = 23.973
 ----------------------------------------
 ddikick.x: exited gracefully.
----- accounting info -----
Files used on the master node w015 were:
-rw-r--r-- 1 xacs0647 10000  2703863 Dec 25 14:31 /job_dir/16_1685739/16.dat
-rw-r--r-- 1 xacs0647 10000      243 Dec 25 14:31 /job_dir/16_1685739/16.err
-rw-r--r-- 1 xacs0647 10000      837 Dec 25 14:30 /job_dir/16_1685739/16.F05
-rw-r--r-- 1 xacs0647 10000 55804960 Dec 25 14:31 /job_dir/16_1685739/16.F08
-rw-r--r-- 1 xacs0647 10000 50944528 Dec 25 14:31 /job_dir/16_1685739/16.F08.001
-rw-r--r-- 1 xacs0647 10000 45904080 Dec 25 14:31 /job_dir/16_1685739/16.F08.002
-rw-r--r-- 1 xacs0647 10000 50944528 Dec 25 14:31 /job_dir/16_1685739/16.F08.003
-rw-r--r-- 1 xacs0647 10000 51484576 Dec 25 14:31 /job_dir/16_1685739/16.F08.004
-rw-r--r-- 1 xacs0647 10000 55624944 Dec 25 14:31 /job_dir/16_1685739/16.F08.005
-rw-r--r-- 1 xacs0647 10000 45724064 Dec 25 14:31 /job_dir/16_1685739/16.F08.006
-rw-r--r-- 1 xacs0647 10000 49684416 Dec 25 14:31 /job_dir/16_1685739/16.F08.007
-rw-r--r-- 1 xacs0647 10000 50764512 Dec 25 14:31 /job_dir/16_1685739/16.F08.008
-rw-r--r-- 1 xacs0647 10000 47524224 Dec 25 14:31 /job_dir/16_1685739/16.F08.009
-rw-r--r-- 1 xacs0647 10000 51844608 Dec 25 14:31 /job_dir/16_1685739/16.F08.010
-rw-r--r-- 1 xacs0647 10000 47704240 Dec 25 14:31 /job_dir/16_1685739/16.F08.011
-rw-r--r-- 1 xacs0647 10000 47524224 Dec 25 14:31 /job_dir/16_1685739/16.F08.012
-rw-r--r-- 1 xacs0647 10000 48784336 Dec 25 14:31 /job_dir/16_1685739/16.F08.013
-rw-r--r-- 1 xacs0647 10000 55084896 Dec 25 14:31 /job_dir/16_1685739/16.F08.014
-rw-r--r-- 1 xacs0647 10000 50584496 Dec 25 14:31 /job_dir/16_1685739/16.F08.015
-rw-r--r-- 1 xacs0647 10000  5758720 Dec 25 14:31 /job_dir/16_1685739/16.F10
-rw-r--r-- 1 xacs0647 10000      837 Dec 25 14:30 /job_dir/16_1685739/16.inp
-rw-r--r-- 1 xacs0647 10000  2403389 Dec 25 14:31 /job_dir/16_1685739/16.out
Mon Dec 25 14:31:24 CST 2023
0.091u 0.070s 0:28.11 0.5%	0+0k 184+40io 1pf+0w
