----- GAMESS execution script 'rungms' -----
This job is running on host w015
under operating system Linux at Mon Dec 25 14:30:56 CST 2023
Available scratch disk space (Kbyte units) at beginning of the job is
Filesystem              1K-blocks    Used Available Use% Mounted on
/dev/mapper/system-root 932514944 2654168 929860776   1% /
GAMESS temporary binary files will be written to /job_dir/17_1685740
GAMESS supplementary output files will be written to /job_dir/17_1685740
Copying input file ./17.inp to your run's scratch directory...
 
Assuming a single but multicore node.
 

 Distributed Data Interface kickoff program.
 Initiating 16 compute processes on 1 nodes to run the following command:
 /share/apps/xeda-apps/xeda-td/gamess.00.x 17 

          *******************************************************
          *                                                     *
          *          GAMESS VERSION = 30 SEP 2020 (R2)          *
          *                                                     *
          *              doi.org/10.1063/5.0005188              *
          *                                                     *
          **************** 64 BIT LINUX VERSION *****************

  GAMESS HAS BEEN MADE POSSIBLE WITH IMPORTANT CONTRIBUTIONS FROM
  THE FOLLOWING INDIVIDUALS (IN ALPHABETICAL ORDER):

     IVANA ADAMOVIC, CHRISTINE AIKENS, TOMOKO AKAMA,
     YURI ALEXEEV, YURIKO AOKI, POOJA ARORA, TOSHIO ASADA,
     ANDREY ASADCHEV, KIM K. BALDRIDGE, PRADIPTA BANDYOPADHYAY,
     MARIA BARYSZ, ROB BELL, JONATHAN BENTZ, COLLEEN BERTONI,
     JERRY A. BOATZ, BRETT BODE, KURT BRORSEN, KURT R. BRORSEN,
     LAIMUTIS BYTAUTAS, CALEB CARLIN, LAURA CARRINGTON,
     GALINA CHABAN, BENOIT CHAMPAGNE, WEI CHEN, MAHITO CHIBA,
     DAN CHIPMAN, CHEOL HO CHOI, TANNER CULPITT,
     DIPAYAN DATTA, PAUL DAY, ALBERT DEFUSCO,
     NUWAN DESILVA, J. EMILIANO DEUSTUA,
     TIM DUDLEY, MICHEL DUPUIS, STEVEN T. ELBERT,
     DMITRI FEDOROV, ALEX FINDLATER, GRAHAM FLETCHER,
     MARK FREITAG, CHRISTIAN FRIEDL, DAVID GARMER,
     IGOR S. GERASIMOV, KURT GLAESEMANN, MARK S. GORDON,
     JEFFREY GOUR, FENG LONG GU, EMILIE B. GUIDEZ,
     ANASTASIA GUNINA, SHARON HAMMES-SCHIFFER, MASATAKE HARUTA,
     KIMIHIKO HIRAO, YASUHIRO IKABATA, TZVETELIN IORDANOV,
     STEPHAN IRLE, KAZUYA ISHIMURA, JOE IVANIC, FRANK JENSEN,
     JAN H. JENSEN, VISVALDAS KAIRYS, MUNEAKI KAMIYA,
     MICHIO KATOUDA, NAOAKI KAWAKAMI, DAN KEMP, BERNARD KIRTMAN,
     KAZUO KITAURA, MARIUSZ KLOBUKOWSKI, MASATO KOBAYASHI,
     PRAKASHAN KORAMBATH, JACEK KORCHOWIEC, SHIRO KOSEKI,
     KAROL KOWALSKI, JIMMY KROMANN, STANISLAW KUCHARSKI,
     HENRY KURTZ, SAROM SOK LEANG, HUI LI, SHUHUA LI, WEI LI,
     JESSE LUTZ, ALEKSANDR O. LYKHIN, MARCIN MAKOWSKI,
     JOANI MATO, NIKITA MATSUNAGA, BENEDETTA MENNUCCI,
     GRANT MERRILL, NORIYUKI MINEZAWA, VLADIMIR MIRONOV,
     EISAKU MIYOSHI, JOHN A. MONTGOMERY JR., HIROTOSHI MORI,
     JONATHAN MULLIN, MONIKA MUSIAL, SHIGERU NAGASE,
     TAKESHI NAGATA, HIROMI NAKAI, TAKAHITO NAKAJIMA,
     YUYA NAKAJIMA, HARUYUKI NAKANO, HIROYA NAKATA, SEAN NEDD,
     HEATHER NETZLOFF, KIET A. NGUYEN, YOSHIO NISHIMOTO,
     BOSILJKA NJEGIC, RYAN OLSON, MIKE PAK, ROBERTO PEVERATI,
     BUU PHAM, PIOTR PIECUCH, ANNA POMOGAEVA, DAVID POOLE,
     SPENCER PRUITT, OLIVIER QUINET, LUKE ROSKOP,
     KLAUS RUEDENBERG, ANDREW SAND, TOSAPORN SATTASATHUCHANA,
     NOZOMI SAWADA, MICHAEL W. SCHMIDT, PATRICK E. SCHNEIDER,
     JUNJI SEINO, PRACHI SHARMA, JUN SHEN, JIM SHOEMAKER,
     YINAN SHU, DEJUN SI, JONATHAN SKONE, LYUDMILA SLIPCHENKO,
     TONY SMITH, JIE SONG, MARK SPACKMAN, CASPER STEINMANN,
     WALT STEVENS, PEIFENG SU, SHUJUN SU, CHET SWALINA,
     TETSUYA TAKETSUGU, ZHEN TAO, NANDUN THELLAMUREGE
     SEIKEN TOKURA, JACOPO TOMASI, TSUGUKI TOUMA, TAKAO TSUNEDA,
     HIROAKI UMEDA, JORGE LUIS GALVEZ VALLEJO, YALI WANG,
     SIMON WEBB, AARON WEST, THERESA L. WINDUS, MARTA WLOCH,
     PENG XU, KIYOSHI YAGI, SUSUMU YANAGISAWA, YANG YANG,
     SOOHAENG YOO, TAKESHI YOSHIKAWA, FEDERICO ZAHARIEV,
     TOBY ZENG

  WHO ARE SUPPORTED BY THEIR INSTITUTION/UNIVERSITY/COMPANY/GROUP
  (IN ALPHABETICAL ORDER):

     EP ANALYTICS, FACULTES UNIVERSITAIRES NOTRE-DAME DE LA PAIX,
     INSTITUTE FOR MOLECULAR SCIENCE, IOWA STATE UNIVERSITY,
     JACKSON STATE UNIVERSITY, JOHANNES KEPLER UNIVERSITY LINZ,
     KYUSHU UNIVERSITY, MICHIGAN STATE UNIVERSITY,
     MIE UNIVERSITY, MOSCOW STATE UNIVERSITY,
     N. COPERNICUS UNIVERSITY, NAGOYA UNIVERSITY,
     NANJING UNIVERSITY, NAT. INST. OF ADVANCED INDUSTRIAL
     SCIENCE AND TECHNOLOGY, NATIONAL INST. OF STANDARDS AND
     TECHNOLOGY, NESMEYANOV INSTITUTE OF ORGANOELEMENT COMPOUNDS
     OF RUSSIAN ACADEMY OF SCIENCES, OSAKA PREFECTURE UNIVERSITY,
     PENNSYLVANIA STATE UNIVERSITY, TOKYO INSTITUTE OF TECHNOLOGY,
     UNIVERSITY OF AARHUS, UNIVERSITY OF ALBERTA,
     UNIVERSITY OF CALIFORNIA AT SANTA BARBARA,
     UNIVERSITY OF COPENHAGEN, UNIVERSITY OF IOWA,
     UNIVERSITY OF MEMPHIS, UNIVERSITY OF MINNESOTA,
     UNIVERSITY OF NEBRASKA, UNIVERSITY OF NEW ENGLAND,
     UNIVERSITY OF NOTRE DAME, UNIVERSITY OF PISA,
     UNIVERSITY OF SILESIA, UNIVERSITY OF TOKYO,
     UNIVERSITY OF ZURICH, WASEDA UNIVERSITY, YALE UNIVERSITY

  GAMESS SOFTWARE MANAGEMENT TEAM FOR THIS RELEASE:
     MARK S. GORDON (TEAM LEAD),
     BRETT BODE (SENIOR ADVISOR),
     GIUSEPPE BARCA,
     COLLEEN BERTONI,
     KRISTOPHER KEIPERT (ADVISOR),
     SAROM S. LEANG (DEVELOPMENT LEAD),
     BUU PHAM,
     JORGE LUIS GALVEZ VALLEJO (WEBSITE ADMINISTRATOR),
     PENG XU


 PARALLEL VERSION RUNNING ON       16 PROCESSORS IN        1 NODES.

 EXECUTION OF GAMESS BEGUN 14:30:56 25-DEC-2023    

            ECHO OF THE FIRST FEW INPUT CARDS -
 INPUT CARD> $CONTRL SCFTYP=UHF RUNTYP=EDA dfttyp=B3LYP ispher=1 icharg=0 mult=1 $END       
 INPUT CARD> $SYSTEM  mwords=150 memddi=150 $END                                            
 INPUT CARD> $BASIS gbasis=accd $END                                                        
 INPUT CARD> $LMOEDA MATOM(1)=5 5 MCHARG(1)=0 0 MMULT(1)=2 -2 edatyp=gks $end               
 INPUT CARD> $scf DIIS=.TRUE. ETHRSH=2.0 SWDIIS=0.005 $end                                  
 INPUT CARD> $data                                                                          
 INPUT CARD> EDA calculation with XEDA 1.0                                                  
 INPUT CARD> c1                                                                             
 INPUT CARD>C   6   -0.2843615612    0.8111539429   -1.4982513833                           
 INPUT CARD>C   6   -0.2843615612    0.8111539429   -0.1437497415                           
 INPUT CARD>H   1   -0.3383140450    1.7660401043    0.3950628041                           
 INPUT CARD>H   1   -0.2571419880   -0.1188213633   -2.0734474368                           
 INPUT CARD>H   1   -0.3027900766    1.7395203555   -2.0747335175                           
 INPUT CARD>C   6   -0.2843615612   -0.4288637779    0.7033869062                           
 INPUT CARD>C   6    0.8171097409   -1.1692787244    0.9739976027                           
 INPUT CARD>H   1    1.7967090408   -0.9161049608    0.5583846468                           
 INPUT CARD>H   1    0.7734537111   -2.0557811179    1.6117611493                           
 INPUT CARD>H   1   -1.2435691622   -0.7025860994    1.1616684611                           
 INPUT CARD> $end                                                                           
  150000000 WORDS OF MEMORY AVAILABLE

     BASIS OPTIONS
     -------------
     GBASIS=ACCD         IGAUSS=       0      POLAR=NONE    
     NDFUNC=       0     NFFUNC=       0     DIFFSP=       F
     NPFUNC=       0      DIFFS=       F     BASNAM=        


     RUN TITLE
     ---------
  EDA calculation with XEDA 1.0                                                  

 THE POINT GROUP OF THE MOLECULE IS C1      
 THE ORDER OF THE PRINCIPAL AXIS IS     0

 ATOM      ATOMIC                      COORDINATES (BOHR)
           CHARGE         X                   Y                   Z
 C           6.0    -0.5373654321        1.5328586859       -2.8312845752
 C           6.0    -0.5373654321        1.5328586859       -0.2716476222
 H           1.0    -0.6393208428        3.3373318805        0.7465604477
 H           1.0    -0.4859278973       -0.2245398181       -3.9182475055
 H           1.0    -0.5721902766        3.2872168220       -3.9206778456
 C           6.0    -0.5373654321       -0.8104350263        1.3292085161
 C           6.0     1.5441135122       -2.2096163924        1.8405885818
 H           1.0     3.3952877668       -1.7311873519        1.0551939782
 H           1.0     1.4616155782       -3.8848630036        3.0457869298
 H           1.0    -2.3500049633       -1.3276952106        2.1952350801

          INTERNUCLEAR DISTANCES (ANGS.)
          ------------------------------

                1 C          2 C          3 H          4 H          5 H     

   1 C       0.0000000    1.3545016 *  2.1211688 *  1.0938215 *  1.0929481 *
   2 C       1.3545016 *  0.0000000    1.0977420 *  2.1422717 *  2.1426391 *
   3 H       2.1211688 *  1.0977420 *  0.0000000    3.1069011    2.4701941 *
   4 H       1.0938215 *  2.1422717 *  3.1069011    0.0000000    1.8589027 *
   5 H       1.0929481 *  2.1426391 *  2.4701941 *  1.8589027 *  0.0000000  
   6 C       2.5268271 *  1.5017604 *  2.2171102 *  2.7942219 *  3.5242279  
   7 C       3.3537095    2.5267987 *  3.2072210    3.3977049    4.3600515  
   8 H       3.3976506    2.7941494 *  3.4320402    3.4322741    4.2887706  
   9 H       4.3600995    3.5242174    4.1620548    4.2889046    5.3993386  
  10 H       3.2072826    2.2171163 *  2.7388476 *  3.4321706    4.1621205  

                6 C          7 C          8 H          9 H         10 H     

   1 C       2.5268271 *  3.3537095    3.3976506    4.3600995    3.2072826  
   2 C       1.5017604 *  2.5267987 *  2.7941494 *  3.5242174    2.2171163 *
   3 H       2.2171102 *  3.2072210    3.4320402    4.1620548    2.7388476 *
   4 H       2.7942219 *  3.3977049    3.4322741    4.2889046    3.4321706  
   5 H       3.5242279    4.3600515    4.2887706    5.3993386    4.1621205  
   6 C       0.0000000    1.3545049 *  2.1422615 *  2.1426565 *  1.0977364 *
   7 C       1.3545049 *  0.0000000    1.0938217 *  1.0929477 *  2.1211836 *
   8 H       2.1422615 *  1.0938217 *  0.0000000    1.8589016 *  3.1069009  
   9 H       2.1426565 *  1.0929477 *  1.8589016 *  0.0000000    2.4702432 *
  10 H       1.0977364 *  2.1211836 *  3.1069009    2.4702432 *  0.0000000  

  * ... LESS THAN  3.000


     ATOMIC BASIS SET
     ----------------
 THE CONTRACTED PRIMITIVE FUNCTIONS HAVE BEEN UNNORMALIZED
 THE CONTRACTED BASIS FUNCTIONS ARE NOW NORMALIZED TO UNITY

  SHELL TYPE  PRIMITIVE        EXPONENT          CONTRACTION COEFFICIENT(S)

 C         

      1   S       1          6665.0000000    0.000691583963
      1   S       2          1000.0000000    0.005325796153
      1   S       3           228.0000000    0.027060721042
      1   S       4            64.7100000    0.101656846141
      1   S       5            21.0600000    0.274574823617
      1   S       6             7.4950000    0.448294318924
      1   S       7             2.7970000    0.284902610715
      1   S       8             0.5215000    0.015194859206

      2   S       9          6665.0000000   -0.000293269653
      2   S      10          1000.0000000   -0.002318035474
      2   S      11           228.0000000   -0.011499786039
      2   S      12            64.7100000   -0.046826727010
      2   S      13            21.0600000   -0.128466168750
      2   S      14             7.4950000   -0.301266272463
      2   S      15             2.7970000   -0.255630702330
      2   S      16             0.5215000    1.093793361012

      3   S      17             0.1596000    1.000000000000

      4   P      18             9.4390000    0.056979251590
      4   P      19             2.0020000    0.313207211501
      4   P      20             0.5456000    0.760376741738

      5   P      21             0.1517000    1.000000000000

      6   D      22             0.5500000    1.000000000000

      7   S      23             0.0469000    1.000000000000

      8   P      24             0.0404100    1.000000000000

      9   D      25             0.1510000    1.000000000000

 C         

     10   S      26          6665.0000000    0.000691583963
     10   S      27          1000.0000000    0.005325796153
     10   S      28           228.0000000    0.027060721042
     10   S      29            64.7100000    0.101656846141
     10   S      30            21.0600000    0.274574823617
     10   S      31             7.4950000    0.448294318924
     10   S      32             2.7970000    0.284902610715
     10   S      33             0.5215000    0.015194859206

     11   S      34          6665.0000000   -0.000293269653
     11   S      35          1000.0000000   -0.002318035474
     11   S      36           228.0000000   -0.011499786039
     11   S      37            64.7100000   -0.046826727010
     11   S      38            21.0600000   -0.128466168750
     11   S      39             7.4950000   -0.301266272463
     11   S      40             2.7970000   -0.255630702330
     11   S      41             0.5215000    1.093793361012

     12   S      42             0.1596000    1.000000000000

     13   P      43             9.4390000    0.056979251590
     13   P      44             2.0020000    0.313207211501
     13   P      45             0.5456000    0.760376741738

     14   P      46             0.1517000    1.000000000000

     15   D      47             0.5500000    1.000000000000

     16   S      48             0.0469000    1.000000000000

     17   P      49             0.0404100    1.000000000000

     18   D      50             0.1510000    1.000000000000

 H         

     19   S      51            13.0100000    0.033498726390
     19   S      52             1.9620000    0.234800801174
     19   S      53             0.4446000    0.813682957883

     20   S      54             0.1220000    1.000000000000

     21   P      55             0.7270000    1.000000000000

     22   S      56             0.0297400    1.000000000000

     23   P      57             0.1410000    1.000000000000

 H         

     24   S      58            13.0100000    0.033498726390
     24   S      59             1.9620000    0.234800801174
     24   S      60             0.4446000    0.813682957883

     25   S      61             0.1220000    1.000000000000

     26   P      62             0.7270000    1.000000000000

     27   S      63             0.0297400    1.000000000000

     28   P      64             0.1410000    1.000000000000

 H         

     29   S      65            13.0100000    0.033498726390
     29   S      66             1.9620000    0.234800801174
     29   S      67             0.4446000    0.813682957883

     30   S      68             0.1220000    1.000000000000

     31   P      69             0.7270000    1.000000000000

     32   S      70             0.0297400    1.000000000000

     33   P      71             0.1410000    1.000000000000

 C         

     34   S      72          6665.0000000    0.000691583963
     34   S      73          1000.0000000    0.005325796153
     34   S      74           228.0000000    0.027060721042
     34   S      75            64.7100000    0.101656846141
     34   S      76            21.0600000    0.274574823617
     34   S      77             7.4950000    0.448294318924
     34   S      78             2.7970000    0.284902610715
     34   S      79             0.5215000    0.015194859206

     35   S      80          6665.0000000   -0.000293269653
     35   S      81          1000.0000000   -0.002318035474
     35   S      82           228.0000000   -0.011499786039
     35   S      83            64.7100000   -0.046826727010
     35   S      84            21.0600000   -0.128466168750
     35   S      85             7.4950000   -0.301266272463
     35   S      86             2.7970000   -0.255630702330
     35   S      87             0.5215000    1.093793361012

     36   S      88             0.1596000    1.000000000000

     37   P      89             9.4390000    0.056979251590
     37   P      90             2.0020000    0.313207211501
     37   P      91             0.5456000    0.760376741738

     38   P      92             0.1517000    1.000000000000

     39   D      93             0.5500000    1.000000000000

     40   S      94             0.0469000    1.000000000000

     41   P      95             0.0404100    1.000000000000

     42   D      96             0.1510000    1.000000000000

 C         

     43   S      97          6665.0000000    0.000691583963
     43   S      98          1000.0000000    0.005325796153
     43   S      99           228.0000000    0.027060721042
     43   S     100            64.7100000    0.101656846141
     43   S     101            21.0600000    0.274574823617
     43   S     102             7.4950000    0.448294318924
     43   S     103             2.7970000    0.284902610715
     43   S     104             0.5215000    0.015194859206

     44   S     105          6665.0000000   -0.000293269653
     44   S     106          1000.0000000   -0.002318035474
     44   S     107           228.0000000   -0.011499786039
     44   S     108            64.7100000   -0.046826727010
     44   S     109            21.0600000   -0.128466168750
     44   S     110             7.4950000   -0.301266272463
     44   S     111             2.7970000   -0.255630702330
     44   S     112             0.5215000    1.093793361012

     45   S     113             0.1596000    1.000000000000

     46   P     114             9.4390000    0.056979251590
     46   P     115             2.0020000    0.313207211501
     46   P     116             0.5456000    0.760376741738

     47   P     117             0.1517000    1.000000000000

     48   D     118             0.5500000    1.000000000000

     49   S     119             0.0469000    1.000000000000

     50   P     120             0.0404100    1.000000000000

     51   D     121             0.1510000    1.000000000000

 H         

     52   S     122            13.0100000    0.033498726390
     52   S     123             1.9620000    0.234800801174
     52   S     124             0.4446000    0.813682957883

     53   S     125             0.1220000    1.000000000000

     54   P     126             0.7270000    1.000000000000

     55   S     127             0.0297400    1.000000000000

     56   P     128             0.1410000    1.000000000000

 H         

     57   S     129            13.0100000    0.033498726390
     57   S     130             1.9620000    0.234800801174
     57   S     131             0.4446000    0.813682957883

     58   S     132             0.1220000    1.000000000000

     59   P     133             0.7270000    1.000000000000

     60   S     134             0.0297400    1.000000000000

     61   P     135             0.1410000    1.000000000000

 H         

     62   S     136            13.0100000    0.033498726390
     62   S     137             1.9620000    0.234800801174
     62   S     138             0.4446000    0.813682957883

     63   S     139             0.1220000    1.000000000000

     64   P     140             0.7270000    1.000000000000

     65   S     141             0.0297400    1.000000000000

     66   P     142             0.1410000    1.000000000000

 TOTAL NUMBER OF BASIS SET SHELLS             =   66
 NUMBER OF CARTESIAN GAUSSIAN BASIS FUNCTIONS =  154
 NOTE: THIS RUN WILL RESTRICT THE MO VARIATION SPACE TO SPHERICAL HARMONICS.
 THE NUMBER OF ORBITALS KEPT IN THE VARIATIONAL SPACE WILL BE PRINTED LATER.
 NUMBER OF ELECTRONS                          =   30
 CHARGE OF MOLECULE                           =    0
 SPIN MULTIPLICITY                            =    1
 NUMBER OF OCCUPIED ORBITALS (ALPHA)          =   15
 NUMBER OF OCCUPIED ORBITALS (BETA )          =   15
 TOTAL NUMBER OF ATOMS                        =   10
 THE NUCLEAR REPULSION ENERGY IS      102.7323295440

 SELECTED MURRAY-HANDY-LAMING RADIAL GRID

 LEGACY BECKE'S FUZZY CELL METHOD

 SELECTED ORIGINAL BECKE'S PARTITION FUNCTION

     LEBEDEV GRID-BASED DFT OPTIONS
     ------------------------------
     DFTTYP=B3LYP   
     NRAD  =      96     NLEB  =     302
     NRAD0 =      24     NLEB0 =     110
     SWOFF =    5.00E-03 (PURE SCF -> DFT)
     SWITCH=    3.00E-04 (COARSE -> TIGHT GRID)
     THRESH=    0.00E+00 GTHRE=    1.00E+00

 GRIMME'S EMPIRICAL DISPERSION CORRECTION= F

     $CONTRL OPTIONS
     ---------------
 SCFTYP=UHF          RUNTYP=LMOEDA       EXETYP=RUN     
 MPLEVL=       0     CITYP =NONE         CCTYP =NONE         VBTYP =NONE    
 DFTTYP=B3LYP        TDDFT =NONE    
 MULT  =       1     ICHARG=       0     NZVAR =       0     COORD =UNIQUE  
 PP    =NONE         RELWFN=NONE         LOCAL =NONE         NUMGRD=       F
 ISPHER=       1     NOSYM =       0     MAXIT =      30     UNITS =ANGS    
 PLTORB=       F     MOLPLT=       F     AIMPAC=       F     FRIEND=        
 NPRINT=       7     IREST =       0     GEOM  =INPUT   
 NORMF =       0     NORMP =       0     ITOL  =      20     ICUT  =       9
 INTTYP=BEST         GRDTYP=BEST         QMTTOL= 1.0E-06

     $SYSTEM OPTIONS
     ---------------
  REPLICATED MEMORY=   150000000 WORDS (ON EVERY NODE).
 DISTRIBUTED MEMDDI=         150 MILLION WORDS IN AGGREGATE,
 MEMDDI DISTRIBUTED OVER  16 PROCESSORS IS     9375000 WORDS/PROCESSOR.
 TOTAL MEMORY REQUESTED ON EACH PROCESSOR=   159375000 WORDS.
 TIMLIM=      525600.00 MINUTES, OR     365.0 DAYS.
 PARALL= T  BALTYP=  DLB     KDIAG=    0  COREFL= F
 MXSEQ2=     300 MXSEQ3=     150  mem10=         0  mem22=         0

 Using Gaussians for PCM contribution to MEP, params: 0.10000E+01 0.10000E-07

          ----------------
          PROPERTIES INPUT
          ----------------

     MOMENTS            FIELD           POTENTIAL          DENSITY
 IEMOM =       1   IEFLD =       0   IEPOT =       0   IEDEN =       0
 WHERE =COMASS     WHERE =NUCLEI     WHERE =NUCLEI     WHERE =NUCLEI  
 OUTPUT=BOTH       OUTPUT=BOTH       OUTPUT=BOTH       OUTPUT=BOTH    
 IEMINT=       0   IEFINT=       0                     IEDINT=       0
                                                       MORB  =       0
          EXTRAPOLATION IN EFFECT
          DIIS IN EFFECT
          DIIS or SOSCF will be reset if energy rises
 ORBITAL PRINTING OPTION: NPREO=     1   154     2     1

     -------------------------------
     INTEGRAL TRANSFORMATION OPTIONS
     -------------------------------
     NWORD  =            0
     CUTOFF = 1.0E-09     MPTRAN =       0
     DIRTRF =       F     AOINTS =DUP     

          -----------------------------
          LOCALIZATION INPUT PARAMETERS
          -----------------------------
           LOCAL=RUEDNBRG      NOUTA=       0
          PRTLOC=       F      NOUTB=       0
          MAXLOC=     250     CVGLOC=1.00E-06
           FCORE=       F     SYMLOC=       F
          MOIDON=       F     EDCOMP=       F
          DIPDCM=       F      NPROT=       0
          QADDCM=       F     DEPRNT=       F
          POLNUM=       F     ORIENT=       F
          POLDYN=       F      VMTOL=1.50E-01
          NPRDTL=       2     IBOYAL=       1

          ----------------------
          INTEGRAL INPUT OPTIONS
          ----------------------
 NOPK  =       1 NORDER=       0 SCHWRZ=       T

     ------------------------------------------
     THE POINT GROUP IS C1 , NAXIS= 0, ORDER= 1
     ------------------------------------------

 -- VARIATIONAL SPACE WILL BE RESTRICTED TO PURE SPHERICAL HARMONICS ONLY --
 AFTER EXCLUDING CONTAMINANT COMBINATIONS FROM THE CARTESIAN GAUSSIAN BASIS
 SET, THE NUMBER OF SPHERICAL HARMONICS KEPT IN THE VARIATION SPACE IS  146

     DIMENSIONS OF THE SYMMETRY SUBSPACES ARE
 A   =  146

 ..... DONE SETTING UP THE RUN .....
 CPU     0: STEP CPU TIME=     0.03 TOTAL CPU TIME=          0.0 (      0.0 MIN)
 TOTAL WALL CLOCK TIME=          0.0 SECONDS, CPU UTILIZATION IS    81.13%

          --------------
          GKSEDA OPTIONS
          --------------
          NMOL  =       2          EDATYP=GKS     
          SUPBAS=       T          RDVECM=       F          ITRTN =       T

 *******************
 GKSEDA IS BEGINNING
 *******************

 NMOL =  2

 MONOMER     ATOM   CHARGE ELECTRON MULTIPLE
 -------------------------------------------
       1        5        0       15        2
       2        5        0       15       -2
 -------------------------------------------

 SAVING MOL INFO REQUIRES    598670 WORDS OF MEMORY.

          ********************
          1 ELECTRON INTEGRALS
          ********************
 ...... END OF ONE-ELECTRON INTEGRALS ......
 CPU     0: STEP CPU TIME=     0.01 TOTAL CPU TIME=          0.0 (      0.0 MIN)
 TOTAL WALL CLOCK TIME=          0.0 SECONDS, CPU UTILIZATION IS    83.03%

          -------------
          GUESS OPTIONS
          -------------
          GUESS =HUCKEL            NORB  =       0          NORDER=       0
          MIX   =       F          PRTMO =       F          PUNMO =       F
          TOLZ  = 1.0E-08          TOLE  = 1.0E-05
          SYMDEN=       F          PURIFY=       F

 INITIAL GUESS ORBITALS GENERATED BY HUCKEL   ROUTINE.
 HUCKEL GUESS REQUIRES    180842 WORDS.

 STATISTICS FOR GENERATION OF SYMMETRY ORBITAL -Q- MATRIX
 NUMBER OF CARTESIAN ATOMIC ORBITALS=        154
 NUMBER OF SPHERICAL CONTAMINANTS DROPPED=     8
 NUMBER OF LINEARLY DEPENDENT MOS DROPPED=     0
 TOTAL NUMBER OF MOS IN VARIATION SPACE=     146

 SYMMETRIES FOR INITIAL GUESS ORBITALS FOLLOW.  ALPHA SET(S).
    15 ORBITALS ARE OCCUPIED (    4 CORE ORBITALS).
     5=A        6=A        7=A        8=A        9=A       10=A       11=A   
    12=A       13=A       14=A       15=A       16=A       17=A       18=A   
    19=A       20=A       21=A       22=A       23=A       24=A       25=A   

 SYMMETRIES FOR INITIAL GUESS ORBITALS FOLLOW.   BETA SET(S).
    15 ORBITALS ARE OCCUPIED (    4 CORE ORBITALS).
     5=A        6=A        7=A        8=A        9=A       10=A       11=A   
    12=A       13=A       14=A       15=A       16=A       17=A       18=A   
    19=A       20=A       21=A       22=A       23=A       24=A       25=A   
 ...... END OF INITIAL ORBITAL SELECTION ......
 CPU     0: STEP CPU TIME=     0.01 TOTAL CPU TIME=          0.1 (      0.0 MIN)
 TOTAL WALL CLOCK TIME=          0.1 SECONDS, CPU UTILIZATION IS    87.06%

          -------------------------
          MONOMER  1 WITH OWN BASIS
          -------------------------

     ------------------------------------------
     THE POINT GROUP IS C1 , NAXIS= 0, ORDER= 1
     ------------------------------------------

 -- VARIATIONAL SPACE WILL BE RESTRICTED TO PURE SPHERICAL HARMONICS ONLY --
 AFTER EXCLUDING CONTAMINANT COMBINATIONS FROM THE CARTESIAN GAUSSIAN BASIS
 SET, THE NUMBER OF SPHERICAL HARMONICS KEPT IN THE VARIATION SPACE IS   73

     DIMENSIONS OF THE SYMMETRY SUBSPACES ARE
 A   =   73

          ********************
          1 ELECTRON INTEGRALS
          ********************
 ...... END OF ONE-ELECTRON INTEGRALS ......
 CPU     0: STEP CPU TIME=     0.01 TOTAL CPU TIME=          0.1 (      0.0 MIN)
 TOTAL WALL CLOCK TIME=          0.1 SECONDS, CPU UTILIZATION IS    87.92%

          -------------
          GUESS OPTIONS
          -------------
          GUESS =HUCKEL            NORB  =       0          NORDER=       0
          MIX   =       F          PRTMO =       F          PUNMO =       F
          TOLZ  = 1.0E-08          TOLE  = 1.0E-05
          SYMDEN=       F          PURIFY=       F

 INITIAL GUESS ORBITALS GENERATED BY HUCKEL   ROUTINE.
 HUCKEL GUESS REQUIRES     47410 WORDS.

 STATISTICS FOR GENERATION OF SYMMETRY ORBITAL -Q- MATRIX
 NUMBER OF CARTESIAN ATOMIC ORBITALS=         77
 NUMBER OF SPHERICAL CONTAMINANTS DROPPED=     4
 NUMBER OF LINEARLY DEPENDENT MOS DROPPED=     0
 TOTAL NUMBER OF MOS IN VARIATION SPACE=      73

 SYMMETRIES FOR INITIAL GUESS ORBITALS FOLLOW.  ALPHA SET(S).
     8 ORBITALS ARE OCCUPIED (    2 CORE ORBITALS).
     3=A        4=A        5=A        6=A        7=A        8=A        9=A   
    10=A       11=A       12=A       13=A       14=A       15=A       16=A   
    17=A       18=A   

 SYMMETRIES FOR INITIAL GUESS ORBITALS FOLLOW.   BETA SET(S).
     7 ORBITALS ARE OCCUPIED (    2 CORE ORBITALS).
     3=A        4=A        5=A        6=A        7=A        8=A        9=A   
    10=A       11=A       12=A       13=A       14=A       15=A       16=A   
    17=A   
 ...... END OF INITIAL ORBITAL SELECTION ......
 CPU     0: STEP CPU TIME=     0.00 TOTAL CPU TIME=          0.1 (      0.0 MIN)
 TOTAL WALL CLOCK TIME=          0.1 SECONDS, CPU UTILIZATION IS    88.41%

                    ----------------------
                    AO INTEGRAL TECHNOLOGY
                    ----------------------
     S,P,L SHELL ROTATED AXIS INTEGRALS, REPROGRAMMED BY
        KAZUYA ISHIMURA (IMS) AND JOSE SIERRA (SYNSTAR).
     S,P,D,L SHELL ROTATED AXIS INTEGRALS PROGRAMMED BY
        KAZUYA ISHIMURA (INSTITUTE FOR MOLECULAR SCIENCE).
     S,P,D,F,G SHELL TO TOTAL QUARTET ANGULAR MOMENTUM SUM 5,
        ERIC PROGRAM BY GRAHAM FLETCHER (ELORET AND NASA ADVANCED
        SUPERCOMPUTING DIVISION, AMES RESEARCH CENTER).
     S,P,D,F,G,L SHELL GENERAL RYS QUADRATURE PROGRAMMED BY
        MICHEL DUPUIS (PACIFIC NORTHWEST NATIONAL LABORATORY).

          --------------------
          2 ELECTRON INTEGRALS
          --------------------

 THE -PK- OPTION IS OFF, THE INTEGRALS ARE NOT IN SUPERMATRIX FORM.
 STORING   15000 INTEGRALS/RECORD ON DISK, USING 12 BYTES/INTEGRAL.
 TWO ELECTRON INTEGRAL EVALUATION REQUIRES   90957 WORDS OF MEMORY.
 SCHWARZ INEQUALITY OVERHEAD:      3003 INTEGRALS, T=        0.00
 II,JST,KST,LST =  1  1  1  1 NREC =         1 INTLOC =    1
 II,JST,KST,LST =  2  1  1  1 NREC =         1 INTLOC =    1
 II,JST,KST,LST =  3  1  1  1 NREC =         1 INTLOC =    1
 II,JST,KST,LST =  4  1  1  1 NREC =         1 INTLOC =    1
 II,JST,KST,LST =  5  1  1  1 NREC =         1 INTLOC =    1
 II,JST,KST,LST =  6  1  1  1 NREC =         1 INTLOC =    1
 II,JST,KST,LST =  7  1  1  1 NREC =         1 INTLOC =    4
 II,JST,KST,LST =  8  1  1  1 NREC =         1 INTLOC =   49
 II,JST,KST,LST =  9  1  1  1 NREC =         1 INTLOC =  589
 II,JST,KST,LST = 10  1  1  1 NREC =         1 INTLOC =  589
 II,JST,KST,LST = 11  1  1  1 NREC =         1 INTLOC =  589
 II,JST,KST,LST = 12  1  1  1 NREC =         1 INTLOC = 1015
 II,JST,KST,LST = 13  1  1  1 NREC =         1 INTLOC = 1337
 II,JST,KST,LST = 14  1  1  1 NREC =         1 INTLOC = 4879
 II,JST,KST,LST = 15  1  1  1 NREC =         1 INTLOC = 4879
 II,JST,KST,LST = 16  1  1  1 NREC =         1 INTLOC = 6793
 II,JST,KST,LST = 17  1  1  1 NREC =         1 INTLOC = 6793
 II,JST,KST,LST = 18  1  1  1 NREC =         1 INTLOC =11441
 II,JST,KST,LST = 19  1  1  1 NREC =         1 INTLOC =11441
 II,JST,KST,LST = 20  1  1  1 NREC =         2 INTLOC = 9717
 II,JST,KST,LST = 21  1  1  1 NREC =         3 INTLOC = 7287
 II,JST,KST,LST = 22  1  1  1 NREC =         5 INTLOC =14997
 II,JST,KST,LST = 23  1  1  1 NREC =         5 INTLOC =14997
 II,JST,KST,LST = 24  1  1  1 NREC =         6 INTLOC =14559
 II,JST,KST,LST = 25  1  1  1 NREC =         7 INTLOC = 7898
 II,JST,KST,LST = 26  1  1  1 NREC =         8 INTLOC = 3122
 II,JST,KST,LST = 27  1  1  1 NREC =         9 INTLOC =  212
 II,JST,KST,LST = 28  1  1  1 NREC =        10 INTLOC =10944
 II,JST,KST,LST = 29  1  1  1 NREC =        11 INTLOC =12581
 II,JST,KST,LST = 30  1  1  1 NREC =        13 INTLOC = 9759
 II,JST,KST,LST = 31  1  1  1 NREC =        14 INTLOC = 1866
 II,JST,KST,LST = 32  1  1  1 NREC =        15 INTLOC = 2956
 II,JST,KST,LST = 33  1  1  1 NREC =        16 INTLOC = 3955
 SCHWARZ INEQUALITY TEST SKIPPED           0 INTEGRAL BLOCKS.
 TOTAL NUMBER OF NONZERO TWO-ELECTRON INTEGRALS =             3901177
        267 INTEGRAL RECORDS WERE STORED ON DISK FILE  8.
  ...... END OF TWO-ELECTRON INTEGRALS .....
 CPU     0: STEP CPU TIME=     0.03 TOTAL CPU TIME=          0.1 (      0.0 MIN)
 TOTAL WALL CLOCK TIME=          0.1 SECONDS, CPU UTILIZATION IS    87.94%

          ---------------------------
              U-B3LYP SCF CALCULATION
          ---------------------------

     NUCLEAR ENERGY =        27.8946383661
     MAXIT = 30     NPUNCH=  2     MULT=  2
     EXTRAP=T  DAMP=F  SHIFT=F  RSTRCT=F  DIIS=T  SOSCF=T
         DENSITY MATRIX CONVERGENCE THRESHOLD=  1.00E-05
     COARSE -> FINE DFT GRID SWITCH THRESHOLD=  3.00E-04 (SWITCH IN $DFT)
                   HF -> DFT SWITCH THRESHOLD=  5.00E-03 (SWOFF IN $DFT)
     SOSCF WILL OPTIMIZE     520 ALPHA AND     462 BETA ROTATION ANGLES.
     SOGTOL= 2.500E-01
     MEMORY REQUIRED FOR UHF/ROHF ITERS=    298732 WORDS.

     EXCHANGE FUNCTIONAL   =B88&HFX   
     CORRELATION FUNCTIONAL=LYP88&VWN5
     DFT THRESHOLD         =.690E-08
     GRID CHANGE THRESHOLD =.300E-03
 FOR AN EULER-MACLAURIN QUADRATURE USING  96 RADIAL POINTS:
 SMALLEST GAUSSIAN PRIMITIVE EXPONENT=        0.0297400000 OF TYPE -S-
 ON ATOM NUMBER   3 HAS RADIAL NORMALIZATION=  1.000000
  LARGEST GAUSSIAN PRIMITIVE EXPONENT=     6665.0000000000 OF TYPE -S-
 ON ATOM NUMBER   1 HAS RADIAL NORMALIZATION=  1.000000
 DFT IS SWITCHED OFF, PERFORMING PURE SCF UNTIL SWOFF THRESHOLD IS REACHED.

 ITER EX      TOTAL ENERGY        E CHANGE  DENSITY CHANGE    DIIS ERROR
          * * *   INITIATING DIIS PROCEDURE   * * *
   1  0      -77.1747576153   -77.1747576153   0.501472310   0.357514882
   2  1      -77.3688871245    -0.1941295092   0.155357201   0.054095580
   3  2      -77.3849346029    -0.0160474784   0.031209483   0.025891965
   4  3      -77.3893292875    -0.0043946846   0.022023328   0.011176367
   5  4      -77.3907105652    -0.0013812777   0.012863770   0.008509625
   6  5      -77.3913528193    -0.0006422541   0.024655364   0.008494116
   7  6      -77.3924212361    -0.0010684167   0.065612021   0.008220769
   8  7      -77.3948019577    -0.0023807217   0.104889356   0.006247273
   9  8      -77.3962618068    -0.0014598491   0.059560407   0.001704008
  10  9      -77.3959013266     0.0003604802   0.039381307   0.003749529
  11 10      -77.3963129715    -0.0004116449   0.004539820   0.000556718
 CONVERGED TO SWOFF, SO DFT CALCULATION IS NOW SWITCHED ON.
          * * *   INITIATING DIIS PROCEDURE   * * *
  12 11      -77.8305264786    -0.4342135071   0.393526391   0.062460387
  13 12      -77.8469373595    -0.0164108809   0.062012283   0.016546524
  14 13      -77.8495579993    -0.0026206398   0.024620998   0.012002735
  15 14      -77.8509987093    -0.0014407100   0.049852454   0.007289429
  16 15      -77.8519566770    -0.0009579676   0.009003053   0.003199700
  17 16      -77.8520318575    -0.0000751805   0.005755023   0.001453719
  18 17      -77.8520513622    -0.0000195047   0.001974102   0.000282350
         SWDIIS THRESHOLD HAS BEEN REACHED: SWITCHING DIIS OFF.
          ---------------START SECOND ORDER SCF---------------
  19 18      -77.8520524890    -0.0000011268   0.000135428   0.000022002
  20 19      -77.8520525013    -0.0000000123   0.000154905   0.000022916
  21 20      -77.8520525019    -0.0000000007   0.000065721   0.000021113
  22 21      -77.8520525061    -0.0000000042   0.000008255   0.000002276
  23 22      -77.8520525062    -0.0000000001   0.000012043   0.000001815

          ----------------
          ENERGY CONVERGED
          ----------------
     TIME TO FORM FOCK OPERATORS=       1.2 SECONDS (       0.1 SEC/ITER)
     TIME TO SOLVE SCF EQUATIONS=       0.1 SECONDS (       0.0 SEC/ITER)

 FINAL U-B3LYP ENERGY IS      -77.8520525062 AFTER  23 ITERATIONS
 DFT EXCHANGE + CORRELATION ENERGY =        -9.5255318437
 TOTAL ELECTRON NUMBER             =        14.9999815491

          --------------------
          SPIN SZ   =    0.500
          S-SQUARED =    0.764
          --------------------

  ----- ALPHA SET ----- 

          ------------
          EIGENVECTORS
          ------------

                      1          2          3          4          5
                  -10.2288   -10.2016    -0.7674    -0.5778    -0.4646
                     A          A          A          A          A   
    1  C  1  S    0.012345   1.009653  -0.019736   0.011343  -0.002212
    2  C  1  S   -0.001523   0.022172   0.316400  -0.226921   0.001096
    3  C  1  S    0.040420  -0.073451   0.095289  -0.325155  -0.032681
    4  C  1  X   -0.000004   0.000023   0.000113  -0.002503  -0.009142
    5  C  1  Y   -0.000024  -0.000009   0.007760   0.031782   0.341075
    6  C  1  Z   -0.001012  -0.000338   0.111222   0.207345  -0.209632
    7  C  1  X    0.000087  -0.000035  -0.001081  -0.000696  -0.000374
    8  C  1  Y   -0.001364  -0.000276   0.024168   0.026915  -0.016328
    9  C  1  Z    0.038730  -0.009010  -0.030031  -0.242131   0.040313
   10  C  1 XX    0.000218  -0.001628  -0.006282   0.001476  -0.001734
   11  C  1 YY    0.000859   0.000833  -0.007621  -0.011322   0.008530
   12  C  1 ZZ   -0.001077   0.000795   0.013903   0.009846  -0.006796
   13  C  1 XY   -0.000016  -0.000072   0.000023   0.000400  -0.000131
   14  C  1 XZ   -0.000019  -0.000010   0.000040  -0.000200  -0.000051
   15  C  1 YZ    0.000473   0.000052   0.000201   0.002323  -0.006005
   16  C  1  S    0.015335  -0.034004   0.016515   0.138688  -0.060379
   17  C  1  X   -0.000036  -0.000042   0.000088  -0.000379   0.001381
   18  C  1  Y    0.000768   0.000823  -0.003683   0.008795  -0.058764
   19  C  1  Z    0.006230  -0.003707  -0.001976   0.011932  -0.008873
   20  C  1 XX   -0.002135   0.004871   0.006425  -0.007160  -0.006317
   21  C  1 YY   -0.004467   0.001502  -0.008040   0.105797  -0.044828
   22  C  1 ZZ    0.006602  -0.006372   0.001615  -0.098637   0.051145
   23  C  1 XY    0.000082   0.000110   0.000010  -0.003947  -0.000007
   24  C  1 XZ    0.000129   0.000064  -0.000779  -0.000256  -0.002661
   25  C  1 YZ   -0.003137  -0.001078   0.024705   0.019625   0.104776
   26  C  2  S    1.009990  -0.013934  -0.017218  -0.006468  -0.000311
   27  C  2  S    0.022742  -0.001382   0.307114   0.268789  -0.070420
   28  C  2  S   -0.090080   0.024645   0.253941   0.494156  -0.241645
   29  C  2  X   -0.000071  -0.000004  -0.001739  -0.006349  -0.009905
   30  C  2  Y    0.000895   0.000104   0.024251   0.097590   0.255250
   31  C  2  Z   -0.000227   0.000921  -0.128802   0.119204   0.163177
   32  C  2  X    0.000225   0.000063   0.002730   0.003562   0.000046
   33  C  2  Y   -0.003171  -0.001130  -0.057616  -0.092836   0.008647
   34  C  2  Z    0.030827  -0.016910  -0.091690  -0.220398   0.063266
   35  C  2 XX   -0.000855   0.000676  -0.011460  -0.001395  -0.000451
   36  C  2 YY    0.000512   0.000640  -0.003938   0.009814   0.005692
   37  C  2 ZZ    0.000343  -0.001316   0.015398  -0.008418  -0.005240
   38  C  2 XY   -0.000075  -0.000004  -0.000134  -0.000518  -0.000566
   39  C  2 XZ   -0.000056  -0.000004   0.000204  -0.000068   0.000064
   40  C  2 YZ    0.000887   0.000041  -0.006144  -0.001666  -0.009736
   41  C  2  S   -0.029121   0.019854  -0.018858  -0.118737   0.022417
   42  C  2  X    0.000071   0.000072   0.000147   0.001391  -0.000336
   43  C  2  Y   -0.001403  -0.001334  -0.000285  -0.026708   0.018179
   44  C  2  Z    0.004256  -0.005772   0.006668   0.005013  -0.013318
   45  C  2 XX    0.005999  -0.001053  -0.006889   0.006218   0.001124
   46  C  2 YY    0.004309  -0.001755  -0.017681  -0.059586  -0.008150
   47  C  2 ZZ   -0.010308   0.002808   0.024570   0.053368   0.007026
   48  C  2 XY    0.000086   0.000029   0.001258   0.003449   0.001328
   49  C  2 XZ    0.000222   0.000062  -0.000196   0.001237   0.000022
   50  C  2 YZ   -0.004265  -0.001164   0.008689  -0.022106   0.013171
   51  H  3  S   -0.000656  -0.000100   0.123818   0.258774   0.194050
   52  H  3  S    0.021326   0.007205   0.064935   0.272004   0.107991
   53  H  3  X   -0.000094   0.000006   0.000689   0.001042   0.000531
   54  H  3  Y    0.001713  -0.000008  -0.012716  -0.016809  -0.005873
   55  H  3  Z    0.000736   0.000182  -0.011291  -0.009994  -0.005270
   56  H  3  S    0.001290   0.001934   0.003493   0.025782   0.010346
   57  H  3  X    0.000438   0.000131   0.000199   0.003248   0.000127
   58  H  3  Y   -0.007682  -0.002222  -0.007758  -0.042183  -0.011796
   59  H  3  Z   -0.002009  -0.000912  -0.017516  -0.029516  -0.010622
   60  H  4  S   -0.000347  -0.000856   0.116674  -0.229487  -0.140975
   61  H  4  S    0.017778   0.021905  -0.010824  -0.218656  -0.198158
   62  H  4  X    0.000008   0.000048  -0.000420   0.000419  -0.000021
   63  H  4  Y   -0.000210  -0.001550   0.014384  -0.016889   0.000610
   64  H  4  Z   -0.000611  -0.001017   0.012560  -0.005384  -0.009993
   65  H  4  S    0.001782   0.002005   0.000042  -0.012922  -0.041630
   66  H  4  X   -0.000139  -0.000192   0.000149   0.000628   0.001076
   67  H  4  Y    0.004847   0.006789  -0.009294  -0.020772  -0.049545
   68  H  4  Z    0.002438   0.003026   0.008791  -0.034083   0.011314
   69  H  5  S   -0.000192  -0.000911   0.126306  -0.202756   0.341197
   70  H  5  S    0.009350   0.018995   0.014604  -0.224578   0.435121
   71  H  5  X   -0.000000  -0.000030   0.000291  -0.000325   0.000098
   72  H  5  Y   -0.000078   0.001518  -0.014519   0.016629  -0.010249
   73  H  5  Z   -0.000418  -0.000942   0.011312  -0.004903   0.005093
   74  H  5  S    0.001706   0.001129   0.002220  -0.013577   0.045499
   75  H  5  X    0.000040   0.000119   0.000231   0.000511   0.001674
   76  H  5  Y   -0.002379  -0.006010   0.000657   0.020005  -0.072572
   77  H  5  Z    0.001979   0.002956  -0.002017  -0.053510   0.040811

                      6          7          8          9         10
                   -0.4139    -0.2854    -0.2730    -0.0192    -0.0019
                     A          A          A          A          A   
    1  C  1  S    0.000034  -0.000012   0.000587   0.000107  -0.003004
    2  C  1  S   -0.036437  -0.006198   0.050150   0.000162   0.084429
    3  C  1  S   -0.170578  -0.004953   0.021978   0.000237   0.344529
    4  C  1  X    0.004697   0.390515   0.038303   0.403122  -0.000691
    5  C  1  Y   -0.254819   0.020663  -0.133467   0.009244   0.029683
    6  C  1  Z   -0.319988  -0.011922   0.112447   0.002309  -0.096257
    7  C  1  X   -0.003053   0.215140   0.018954   0.338613  -0.000285
    8  C  1  Y    0.060755   0.001915   0.032755   0.009279   0.042476
    9  C  1  Z   -0.092056   0.002274  -0.021944   0.001658  -0.283963
   10  C  1 XX   -0.001151   0.000040   0.000536   0.000064   0.000939
   11  C  1 YY    0.010624   0.000088  -0.000695   0.000042  -0.002786
   12  C  1 ZZ   -0.009472  -0.000128   0.000160  -0.000107   0.001847
   13  C  1 XY   -0.000536   0.000634  -0.000085   0.000051   0.000154
   14  C  1 XZ   -0.000814   0.021720   0.000752  -0.030102  -0.000091
   15  C  1 YZ    0.013667  -0.002383   0.040488  -0.001551   0.001441
   16  C  1  S   -0.039102  -0.017238   0.157405  -0.002405   1.299506
   17  C  1  X   -0.001543   0.028604   0.002411   0.566497   0.003888
   18  C  1  Y    0.051403  -0.000660   0.019988   0.012745   0.037771
   19  C  1  Z   -0.014952  -0.004326   0.040061   0.000314  -0.297294
   20  C  1 XX    0.000048   0.000329  -0.005625  -0.000050  -0.039336
   21  C  1 YY   -0.044112  -0.003070   0.029149  -0.000086   0.024862
   22  C  1 ZZ    0.044063   0.002742  -0.023523   0.000136   0.014474
   23  C  1 XY    0.000914   0.004604  -0.000534  -0.003296  -0.001783
   24  C  1 XZ    0.001084   0.003652   0.001170  -0.042036  -0.001468
   25  C  1 YZ   -0.051842   0.002554  -0.035016   0.000519   0.027013
   26  C  2  S   -0.000881  -0.000026  -0.000767   0.000099  -0.002549
   27  C  2  S    0.031224   0.015982  -0.150623  -0.002442   0.056079
   28  C  2  S   -0.054127   0.031109  -0.310423  -0.006386   0.367296
   29  C  2  X   -0.007231   0.441923   0.023262  -0.411225  -0.002406
   30  C  2  Y    0.034799  -0.023454   0.473653  -0.018488   0.043800
   31  C  2  Z    0.374811   0.027895  -0.254910  -0.003874   0.082664
   32  C  2  X    0.002267   0.255265   0.016697  -0.348503  -0.005857
   33  C  2  Y   -0.066508  -0.008923   0.242370  -0.018193   0.098476
   34  C  2  Z    0.044422   0.022223  -0.222013  -0.002401  -0.007680
   35  C  2 XX   -0.001587   0.000134  -0.004769   0.000149  -0.001696
   36  C  2 YY    0.011033   0.000255   0.000002  -0.000004  -0.004880
   37  C  2 ZZ   -0.009446  -0.000389   0.004767  -0.000145   0.006576
   38  C  2 XY   -0.000745  -0.000497  -0.000803  -0.000075   0.000139
   39  C  2 XZ   -0.000730  -0.020347  -0.002435  -0.032165   0.000068
   40  C  2 YZ    0.017761  -0.002195   0.020290  -0.000465  -0.003634
   41  C  2  S   -0.013781   0.026242  -0.261050  -0.005015   0.870256
   42  C  2  X    0.001684   0.031205   0.002467  -0.518129  -0.012260
   43  C  2  Y   -0.035908  -0.000513   0.024028  -0.018329   0.190584
   44  C  2  Z   -0.015396  -0.001375   0.007253  -0.003245   0.148687
   45  C  2 XX   -0.004216  -0.000872   0.006922  -0.000411  -0.039464
   46  C  2 YY   -0.036933   0.002276  -0.022983   0.000267  -0.012747
   47  C  2 ZZ    0.041149  -0.001404   0.016062   0.000144   0.052211
   48  C  2 XY    0.002632  -0.001455   0.001016   0.008359  -0.002015
   49  C  2 XZ    0.000625  -0.007185  -0.000131  -0.037712  -0.001772
   50  C  2 YZ   -0.017202   0.000455  -0.012019   0.000394   0.033234
   51  H  3  S    0.233182  -0.016625   0.195451   0.006072   0.005161
   52  H  3  S    0.278249  -0.021731   0.249424   0.006434  -0.358050
   53  H  3  X    0.000413   0.015595   0.001442  -0.020925   0.000574
   54  H  3  Y   -0.009264   0.000197   0.006852  -0.000896  -0.010679
   55  H  3  Z    0.001045   0.001677  -0.015861  -0.000162  -0.001566
   56  H  3  S    0.036840  -0.001695   0.027564   0.004963  -0.899664
   57  H  3  X    0.002059   0.015160   0.003290  -0.053640  -0.001905
   58  H  3  Y   -0.038740   0.002343  -0.017725  -0.000776   0.031442
   59  H  3  Z   -0.036463   0.003229  -0.029116   0.000115   0.032900
   60  H  4  S    0.324678  -0.009823   0.145939  -0.001728   0.006933
   61  H  4  S    0.391115  -0.012618   0.193718  -0.004143  -0.404631
   62  H  4  X   -0.000398   0.014367   0.001316   0.021811  -0.000259
   63  H  4  Y    0.009611   0.000473  -0.000801   0.000634   0.009648
   64  H  4  Z    0.003126  -0.000457   0.005121   0.000247   0.002029
   65  H  4  S    0.035820  -0.002637   0.039862  -0.009699  -0.636866
   66  H  4  X   -0.001882   0.015707   0.000564   0.045380   0.001535
   67  H  4  Y    0.054950  -0.002380   0.035544   0.001057  -0.063723
   68  H  4  Z    0.052374  -0.000044   0.003375   0.001395  -0.017078
   69  H  5  S   -0.072580   0.017627  -0.209726   0.003485   0.003774
   70  H  5  S   -0.183597   0.028470  -0.337113   0.005342  -0.419923
   71  H  5  X    0.000065   0.014301   0.001352   0.022650   0.000282
   72  H  5  Y   -0.003148   0.000266  -0.000053   0.000568  -0.012241
   73  H  5  Z   -0.010890  -0.000001   0.000289  -0.000026   0.003414
   74  H  5  S   -0.043211   0.002388  -0.041741   0.005312  -1.138493
   75  H  5  X   -0.000551   0.012793   0.000645   0.052817  -0.000810
   76  H  5  Y    0.051102  -0.003218   0.043150   0.001778   0.036340
   77  H  5  Z   -0.005863   0.002643  -0.022956  -0.000928  -0.024787

                     11         12         13         14         15
                    0.0149     0.0250     0.0627     0.0712     0.0791
                     A          A          A          A          A   
    1  C  1  S   -0.001247   0.002382   0.000970   0.007706   0.002915
    2  C  1  S    0.067538  -0.017268  -0.001311  -0.011965   0.044115
    3  C  1  S    0.183297  -0.128296  -0.051287  -0.390258   0.153474
    4  C  1  X    0.001427   0.001659   0.171934  -0.015382   0.000984
    5  C  1  Y   -0.067555  -0.118427   0.006617   0.036597   0.011689
    6  C  1  Z   -0.036458   0.005224   0.000920   0.013981   0.054207
    7  C  1  X    0.004741   0.006387   0.198949  -0.020829  -0.001636
    8  C  1  Y   -0.171886  -0.371056   0.010205   0.101259   0.010361
    9  C  1  Z   -0.274768   0.105974  -0.000977   0.031738  -0.047460
   10  C  1 XX    0.002808  -0.003180  -0.000414  -0.007373  -0.006790
   11  C  1 YY    0.004855  -0.001739   0.000101   0.001050  -0.010961
   12  C  1 ZZ   -0.007663   0.004919   0.000313   0.006323   0.017752
   13  C  1 XY   -0.000136  -0.000021  -0.000890  -0.000203   0.000084
   14  C  1 XZ    0.000384   0.000098   0.006163   0.000028  -0.000136
   15  C  1 YZ   -0.004827  -0.003836  -0.000686  -0.010561   0.003055
   16  C  1  S    0.425310  -1.746705  -1.086744 -10.847470   1.499110
   17  C  1  X   -0.001722   0.048521  -0.627547   0.053712   0.015615
   18  C  1  Y   -0.204320  -1.941797   0.066314   0.434171  -0.492443
   19  C  1  Z   -0.535265  -0.369286  -0.453949  -4.822715  -1.568148
   20  C  1 XX   -0.010820   0.016574   0.005908   0.081436   0.022849
   21  C  1 YY    0.022402  -0.051469  -0.012167  -0.153623   0.017165
   22  C  1 ZZ   -0.011582   0.034895   0.006258   0.072187  -0.040014
   23  C  1 XY   -0.002109   0.001914   0.024588   0.005626   0.001072
   24  C  1 XZ    0.001232  -0.003092   0.040767  -0.005091  -0.003832
   25  C  1 YZ   -0.043155   0.100198  -0.001178   0.004308   0.114263
   26  C  2  S   -0.001273  -0.000768  -0.000745  -0.005530   0.005514
   27  C  2  S   -0.072909   0.048063   0.003523   0.040680   0.030684
   28  C  2  S   -0.227993   0.244484   0.048793   0.431589   0.053042
   29  C  2  X    0.005907   0.001313   0.127934  -0.004863  -0.001548
   30  C  2  Y   -0.085173  -0.045885  -0.005973  -0.142255   0.061228
   31  C  2  Z   -0.028027   0.023521   0.001247   0.004739  -0.075554
   32  C  2  X    0.011819  -0.004860   0.144458  -0.021328   0.009239
   33  C  2  Y   -0.159139   0.093226   0.024739   0.115286  -0.142585
   34  C  2  Z   -0.250984   0.150249  -0.001452   0.043610  -0.064952
   35  C  2 XX   -0.003383   0.001477  -0.000402   0.001422  -0.010031
   36  C  2 YY   -0.001773   0.002151   0.000541  -0.000583  -0.013470
   37  C  2 ZZ    0.005156  -0.003628  -0.000139  -0.000839   0.023501
   38  C  2 XY   -0.000239   0.000034   0.003880  -0.000175   0.000203
   39  C  2 XZ   -0.000235  -0.000076  -0.013401   0.001000   0.000188
   40  C  2 YZ    0.008220   0.007569  -0.000276   0.001990  -0.006701
   41  C  2  S   -0.484342   2.285282   1.099287  11.147861  -0.299666
   42  C  2  X    0.036862  -0.034862  -0.590385   0.051820  -0.009865
   43  C  2  Y   -0.553922   1.025338  -0.047283   0.317757  -0.062087
   44  C  2  Z   -0.628084  -0.231177  -0.427633  -4.186303   1.879437
   45  C  2 XX    0.007454  -0.041085  -0.003979  -0.076130   0.063274
   46  C  2 YY   -0.063108   0.033035   0.003335   0.084554  -0.027305
   47  C  2 ZZ    0.055654   0.008050   0.000644  -0.008424  -0.035969
   48  C  2 XY    0.004776  -0.003902  -0.039941  -0.005919   0.003609
   49  C  2 XZ    0.003524  -0.004329  -0.015475  -0.001938  -0.004306
   50  C  2 YZ   -0.072343   0.085462   0.003306   0.060013   0.082809
   51  H  3  S    0.016510   0.015138  -0.000737  -0.022641  -0.017627
   52  H  3  S    0.670224  -0.548424  -0.079116  -0.850168   0.216522
   53  H  3  X   -0.000535   0.000147  -0.005797  -0.000040   0.000425
   54  H  3  Y    0.010271   0.000127   0.000587   0.009773  -0.008466
   55  H  3  Z    0.008202  -0.000501   0.000165   0.005349   0.007036
   56  H  3  S    2.554598  -1.437533   0.322399   3.484696  -0.154700
   57  H  3  X    0.004873  -0.008370   0.037949  -0.013134   0.005299
   58  H  3  Y   -0.082716   0.133066   0.016799   0.136356  -0.084983
   59  H  3  Z   -0.021260   0.003686   0.016252   0.140760  -0.096784
   60  H  4  S   -0.009579   0.012736  -0.001442  -0.023492  -0.024027
   61  H  4  S   -0.448037  -0.452923   0.062475   0.590168  -0.346829
   62  H  4  X   -0.000322  -0.000179  -0.003536   0.000390  -0.000057
   63  H  4  Y    0.007620   0.002762   0.000123  -0.000150   0.003658
   64  H  4  Z    0.007162   0.002822  -0.000700  -0.010508  -0.011241
   65  H  4  S   -2.044982  -3.105824   0.028585   0.444231  -1.131747
   66  H  4  X    0.000933   0.002018   0.070134  -0.008043   0.001377
   67  H  4  Y   -0.060299  -0.052747   0.004550   0.032504  -0.011885
   68  H  4  Z   -0.008228  -0.052965   0.012901   0.144712   0.029418
   69  H  5  S    0.002899  -0.002461   0.001833   0.025494  -0.038531
   70  H  5  S   -0.159593   0.860509   0.040562   0.405966   0.096135
   71  H  5  X   -0.000067  -0.000060  -0.004203   0.000344   0.000142
   72  H  5  Y   -0.002484   0.004235  -0.000162  -0.001338  -0.006313
   73  H  5  Z    0.003237  -0.007301  -0.000301  -0.002370  -0.014303
   74  H  5  S   -0.487244   3.803242  -0.385476  -4.344489   0.588278
   75  H  5  X   -0.001091   0.000514   0.030727  -0.005950   0.002086
   76  H  5  Y    0.063780  -0.092052  -0.001610  -0.002818  -0.090956
   77  H  5  Z    0.051404   0.068130   0.012431   0.100226   0.038085

                     16         17         18         19         20
                    0.1117     0.1127     0.1167     0.1279     0.1458
                     A          A          A          A          A   
    1  C  1  S    0.005886   0.001508  -0.038749  -0.014863  -0.015041
    2  C  1  S   -0.058556  -0.003760  -0.205021  -0.018966  -0.120677
    3  C  1  S   -1.019042  -0.134377   0.309216   0.527131   0.539591
    4  C  1  X   -0.031519   0.234734   0.004656  -0.001721  -0.003920
    5  C  1  Y    0.113259   0.018882  -0.083927   0.237138   0.039946
    6  C  1  Z    0.002033  -0.000239   0.121797   0.000643   0.130980
    7  C  1  X   -0.010709   0.187139  -0.000856   0.028037  -0.006082
    8  C  1  Y   -0.426685  -0.043667   0.294190  -0.927730  -0.172587
    9  C  1  Z   -1.239271  -0.121389  -1.562876  -0.379238   1.550717
   10  C  1 XX    0.000999  -0.000390   0.019915   0.016672  -0.039501
   11  C  1 YY   -0.000339   0.000140   0.003801  -0.008206   0.048786
   12  C  1 ZZ   -0.000660   0.000250  -0.023715  -0.008466  -0.009285
   13  C  1 XY   -0.000371   0.001202   0.000392   0.001370  -0.002689
   14  C  1 XZ   -0.000236  -0.006989   0.000253  -0.000326   0.000808
   15  C  1 YZ    0.024329   0.002356  -0.007165   0.009179  -0.016623
   16  C  1  S   -5.729472  -0.746481   5.055507   5.312740   0.168019
   17  C  1  X    0.260738  -2.222460  -0.070533   0.141718   0.067350
   18  C  1  Y   -0.314288  -0.104297   1.844658  -6.051551  -2.461350
   19  C  1  Z   -3.601592  -0.400523  -1.952858   1.714562   0.566006
   20  C  1 XX    0.047330   0.009987  -0.160266  -0.036946  -0.096375
   21  C  1 YY    0.184552   0.012249   0.344059   0.200947  -0.660764
   22  C  1 ZZ   -0.231882  -0.022236  -0.183793  -0.164002   0.757138
   23  C  1 XY   -0.002911  -0.034243  -0.013939  -0.010555   0.016526
   24  C  1 XZ    0.008976  -0.056981  -0.004023  -0.008909  -0.013410
   25  C  1 YZ   -0.060867  -0.008808  -0.014936   0.331832   0.323279
   26  C  2  S    0.008583   0.001911  -0.035988  -0.026380   0.024616
   27  C  2  S    0.112279   0.014878  -0.112090  -0.099557   0.013148
   28  C  2  S    0.493049   0.023831   1.291171   0.782583  -2.193895
   29  C  2  X    0.017698  -0.241111  -0.002954  -0.001934   0.007638
   30  C  2  Y    0.181612   0.010851  -0.006630   0.001228  -0.092309
   31  C  2  Z    0.060485   0.006662  -0.084885  -0.008954  -0.067515
   32  C  2  X    0.051937  -0.223547  -0.011069  -0.025352   0.027492
   33  C  2  Y   -0.360963  -0.068187   0.131466   0.402817  -0.513108
   34  C  2  Z   -1.374813  -0.157429  -0.904243   0.128291   1.091783
   35  C  2 XX   -0.004741  -0.000321   0.005411   0.013611  -0.011891
   36  C  2 YY    0.005956   0.000220   0.002447  -0.007873   0.017805
   37  C  2 ZZ   -0.001215   0.000100  -0.007858  -0.005738  -0.005914
   38  C  2 XY   -0.000170  -0.005991  -0.000243   0.001074  -0.000833
   39  C  2 XZ    0.000919  -0.004102   0.000016   0.000359   0.000381
   40  C  2 YZ   -0.016166  -0.001579   0.004046  -0.017169   0.001523
   41  C  2  S    4.101829   0.385178   2.635648  -0.919768  -1.947871
   42  C  2  X   -0.103410   2.239557   0.058257  -0.130376  -0.031170
   43  C  2  Y   -2.789515  -0.268022  -0.776828   3.513555   0.704063
   44  C  2  Z   -4.203032  -0.489915  -0.157818   2.259937   1.082711
   45  C  2 XX    0.008200  -0.001219  -0.128127  -0.071397  -0.023734
   46  C  2 YY   -0.307317  -0.031627  -0.131325   0.040732   0.195872
   47  C  2 ZZ    0.299117   0.032846   0.259452   0.030664  -0.172138
   48  C  2 XY    0.013848   0.063996  -0.001333  -0.005065  -0.006607
   49  C  2 XZ    0.023333  -0.083372  -0.006513  -0.008761  -0.010695
   50  C  2 YZ   -0.247079  -0.033912   0.094002   0.145738   0.186827
   51  H  3  S   -0.022268   0.001617   0.010698  -0.087551   0.102531
   52  H  3  S    2.249490   0.316844  -0.523363  -1.793339   0.607455
   53  H  3  X    0.001088  -0.000478  -0.000609  -0.000717   0.000428
   54  H  3  Y   -0.019710  -0.002837   0.011330   0.011068  -0.008245
   55  H  3  Z   -0.012015  -0.001816  -0.001912   0.015134  -0.005199
   56  H  3  S    6.155611   0.754086   0.190141  -3.861697  -0.768269
   57  H  3  X    0.044439  -0.114700  -0.014764  -0.020370  -0.001830
   58  H  3  Y   -0.612867  -0.085685   0.242923   0.282346   0.214192
   59  H  3  Z   -0.386614  -0.051069   0.065091   0.162414  -0.140666
   60  H  4  S    0.028085   0.002758  -0.002361  -0.058064   0.099131
   61  H  4  S   -1.073495  -0.084290  -1.684506  -3.134914   0.711114
   62  H  4  X    0.000425  -0.000221   0.000294   0.000664   0.000496
   63  H  4  Y   -0.010883  -0.001087  -0.009540  -0.022745  -0.024182
   64  H  4  Z   -0.008984  -0.000908  -0.000969  -0.011053   0.005779
   65  H  4  S   -3.895146  -0.412946  -0.790119  -5.105376  -1.982620
   66  H  4  X    0.001144   0.090455   0.015089   0.013964   0.008849
   67  H  4  Y   -0.328855  -0.027245  -0.442702  -0.568243  -0.475798
   68  H  4  Z   -0.305529  -0.026149  -0.208245  -0.569427   0.399017
   69  H  5  S   -0.020642   0.000555  -0.017508  -0.022857   0.226062
   70  H  5  S   -0.030148   0.040704  -2.730269   1.094014   2.829756
   71  H  5  X    0.000055   0.001597  -0.000512   0.000481  -0.000463
   72  H  5  Y   -0.008204  -0.001330   0.026056  -0.016508   0.011395
   73  H  5  Z    0.000797   0.000260  -0.013635   0.014669  -0.000228
   74  H  5  S   -1.202967  -0.117080  -4.245573   6.557925   2.823146
   75  H  5  X   -0.012762   0.121235  -0.013376   0.016870  -0.012209
   76  H  5  Y   -0.010590  -0.003796   0.669777  -0.420752   0.138185
   77  H  5  Z    0.105870   0.017739  -0.420651   0.162579   0.435808

                     21         22         23         24         25
                    0.1685     0.1955     0.2192     0.2532     0.2859
                     A          A          A          A          A   
    1  C  1  S    0.049174   0.018706   0.000485  -0.005168  -0.009761
    2  C  1  S    0.158199   0.012230  -0.000239  -0.030307  -0.135949
    3  C  1  S   -2.139255  -0.556845   0.013147   0.751366   0.397428
    4  C  1  X   -0.001754  -0.002051   0.002442   0.003919   0.000900
    5  C  1  Y   -0.065789   0.123751  -0.017408  -0.199899   0.009349
    6  C  1  Z   -0.062131  -0.020281   0.000244   0.075021  -0.012441
    7  C  1  X   -0.005976  -0.031485  -0.069281   0.007203   0.000052
    8  C  1  Y   -0.091792   0.603707  -0.038707  -0.222552   0.086299
    9  C  1  Z   -1.021148   1.223242   0.098383   0.744740   2.413658
   10  C  1 XX    0.014423  -0.024876  -0.002726  -0.015102  -0.023563
   11  C  1 YY   -0.005956   0.025847   0.002009   0.017240  -0.073758
   12  C  1 ZZ   -0.008467  -0.000971   0.000717  -0.002138   0.097320
   13  C  1 XY   -0.000350  -0.001643   0.047360  -0.003817   0.001804
   14  C  1 XZ    0.001446  -0.001361  -0.002548   0.000475   0.000637
   15  C  1 YZ   -0.037646   0.037356  -0.002671  -0.031700  -0.013045
   16  C  1  S  -18.333151 -20.838696  -1.045674 -10.383232   2.264427
   17  C  1  X    0.001255  -0.064556   0.018918   0.045351   0.017983
   18  C  1  Y   -0.145094   2.488355  -0.052879  -1.745231  -0.954269
   19  C  1  Z   -6.211312  -5.897013  -0.302021  -2.281147   3.999022
   20  C  1 XX    0.179596   0.119915   0.004981   0.084077  -0.275267
   21  C  1 YY    0.142529  -0.559596  -0.025047  -0.206295   0.128932
   22  C  1 ZZ   -0.322125   0.439680   0.020066   0.122218   0.146335
   23  C  1 XY    0.001473   0.024423  -0.177656   0.027035  -0.021186
   24  C  1 XZ   -0.011330  -0.004379  -0.017952  -0.019536  -0.001297
   25  C  1 YZ    0.448330  -0.196909   0.048055   0.862961   0.207903
   26  C  2  S   -0.045758  -0.017646  -0.000432  -0.004353   0.034043
   27  C  2  S   -0.198052  -0.048736  -0.000956  -0.000754   0.162060
   28  C  2  S    1.629411  -0.518341  -0.015348  -0.357177  -0.653465
   29  C  2  X    0.005715  -0.008313  -0.040907  -0.009982   0.006077
   30  C  2  Y   -0.038573   0.062965   0.014716   0.287863  -0.039038
   31  C  2  Z   -0.109729  -0.006426  -0.002767   0.021352  -0.249038
   32  C  2  X    0.005078  -0.040263  -0.233609  -0.019788  -0.016896
   33  C  2  Y   -0.153399   0.792268   0.049827   0.379505   0.422515
   34  C  2  Z   -1.214769   1.127541   0.088461   0.783560   1.573163
   35  C  2 XX   -0.016256   0.012171  -0.001255   0.014570   0.029161
   36  C  2 YY    0.011460   0.003553   0.001786  -0.021623   0.021309
   37  C  2 ZZ    0.004796  -0.015725  -0.000531   0.007053  -0.050470
   38  C  2 XY   -0.002380   0.001080   0.022004   0.000671  -0.000665
   39  C  2 XZ   -0.000510   0.002338   0.009155  -0.000494  -0.000002
   40  C  2 YZ    0.017959  -0.052583   0.001891   0.010235  -0.007460
   41  C  2  S   18.559281  20.988341   1.065382  11.028478  -3.962698
   42  C  2  X    0.097641   0.036855  -0.167970  -0.052724  -0.051843
   43  C  2  Y   -1.684985  -1.007618  -0.000479   1.600174   1.284751
   44  C  2  Z   -6.150314  -5.242336  -0.319504  -2.423532   1.567811
   45  C  2 XX   -0.185223  -0.163409  -0.007190  -0.002896   0.184495
   46  C  2 YY   -0.168515   0.200523   0.032562   0.199389   0.180876
   47  C  2 ZZ    0.353738  -0.037114  -0.025372  -0.196493  -0.365370
   48  C  2 XY   -0.007104  -0.016317   0.255375  -0.029243   0.002605
   49  C  2 XZ   -0.009694  -0.025194  -0.114042  -0.011359  -0.006840
   50  C  2 YZ    0.337462   0.277137   0.032534   0.615122   0.328891
   51  H  3  S    0.177494  -0.180494  -0.000941  -0.091121  -0.023905
   52  H  3  S   -0.266109  -3.015841  -0.248021  -2.915791  -2.138382
   53  H  3  X   -0.000454  -0.000183  -0.004136   0.000580  -0.000241
   54  H  3  Y    0.013069  -0.002307   0.000188  -0.003120   0.002401
   55  H  3  Z    0.004998  -0.007280  -0.000126  -0.004601  -0.012065
   56  H  3  S    3.156956   1.717135   0.162738   0.169772  -2.661470
   57  H  3  X   -0.041033  -0.034069   0.520910  -0.028369  -0.073415
   58  H  3  Y    0.595973   0.624885   0.056672  -0.240853   0.707662
   59  H  3  Z    0.158877  -0.197951   0.037651   0.218103   0.247180
   60  H  4  S   -0.159657   0.216749  -0.004946   0.013908   0.017482
   61  H  4  S   -0.605063   3.610064  -0.018648  -0.776313   1.190319
   62  H  4  X   -0.000678   0.000191  -0.000707   0.000128  -0.000438
   63  H  4  Y    0.019918   0.001681   0.000746   0.000026   0.015459
   64  H  4  Z    0.022208  -0.001612   0.001544   0.024594  -0.008841
   65  H  4  S   -2.015243   0.919462  -0.049371  -0.460892   0.912277
   66  H  4  X    0.007243  -0.003603  -0.731375   0.068987  -0.029277
   67  H  4  Y    0.136748   0.194265  -0.009799  -0.336710   0.593006
   68  H  4  Z    0.221434   0.133507   0.031252   0.421451  -0.850559
   69  H  5  S    0.028951  -0.054595   0.010023   0.155897   0.046575
   70  H  5  S    1.533955   1.082132   0.243447   2.742813   1.907511
   71  H  5  X    0.000252  -0.000062   0.003169  -0.000615   0.000419
   72  H  5  Y   -0.015829   0.002076   0.000464   0.016391  -0.012639
   73  H  5  Z   -0.007798   0.016181  -0.001494  -0.017886  -0.017343
   74  H  5  S   -1.445737  -3.090634  -0.119117   0.005890   2.680629
   75  H  5  X   -0.007026  -0.003375   0.833398  -0.058051   0.022844
   76  H  5  Y   -0.472841  -0.048833  -0.007732  -0.034253  -0.830994
   77  H  5  Z   -0.036333   0.605503  -0.012139  -0.525101  -0.869378

                     26         27         28         29         30
                    0.3083     0.3151     0.3554     0.3770     0.4045
                     A          A          A          A          A   
    1  C  1  S   -0.002857  -0.030340   0.000432  -0.019714   0.040338
    2  C  1  S   -0.012876  -0.128762  -0.000656  -0.059094  -0.017097
    3  C  1  S    0.119999   1.445102  -0.031115   1.781579  -2.136942
    4  C  1  X   -0.057801   0.014100  -0.246830  -0.009754  -0.002932
    5  C  1  Y   -0.014633  -0.139426  -0.006431   0.279589   0.054641
    6  C  1  Z   -0.024887  -0.250240   0.000628  -0.075687  -0.000088
    7  C  1  X   -0.346856   0.012517  -0.969016  -0.082001  -0.016227
    8  C  1  Y    0.033107   0.222419  -0.015918   3.094119   0.300764
    9  C  1  Z    0.264684   2.315056  -0.046900   1.748696  -1.815668
   10  C  1 XX   -0.000772  -0.027024  -0.000198  -0.013477   0.018461
   11  C  1 YY   -0.003854   0.001027   0.000559   0.006365   0.008404
   12  C  1 ZZ    0.004626   0.025997  -0.000361   0.007112  -0.026865
   13  C  1 XY   -0.034671   0.001670   0.011033  -0.000235   0.000069
   14  C  1 XZ   -0.018147   0.002564  -0.029564   0.001230   0.000123
   15  C  1 YZ   -0.003360  -0.023168  -0.001122  -0.050457  -0.010051
   16  C  1  S    0.831521   5.221602  -0.038514   0.106659  -6.300549
   17  C  1  X   -0.089258   0.122463  -1.113450  -0.120314  -0.061016
   18  C  1  Y   -0.388019  -3.617960  -0.039581   4.832074   1.591054
   19  C  1  Z    0.299310   1.515136   0.000827  -0.056505  -1.791929
   20  C  1 XX   -0.048803  -0.079881   0.017893  -0.077223   0.528500
   21  C  1 YY   -0.019774  -0.557849   0.009094  -0.337033   0.613290
   22  C  1 ZZ    0.068577   0.637730  -0.026987   0.414256  -1.141790
   23  C  1 XY    0.517498  -0.031802  -0.226433   0.016295   0.019733
   24  C  1 XZ   -0.000725  -0.046436   0.076541  -0.001042  -0.003446
   25  C  1 YZ    0.110454   1.054400   0.010026   0.321864   0.265736
   26  C  2  S    0.003716   0.027715  -0.000154   0.010526   0.032356
   27  C  2  S    0.014704   0.109615  -0.000901   0.028509  -0.012706
   28  C  2  S   -0.186124  -1.564293   0.039867  -0.576614  -0.257219
   29  C  2  X   -0.112201   0.012311   0.044326  -0.001705   0.008023
   30  C  2  Y   -0.001308   0.034375  -0.002779   0.034593  -0.203120
   31  C  2  Z   -0.003477   0.018744   0.001861  -0.017711   0.034336
   32  C  2  X   -0.632885   0.081102   0.448379  -0.036457   0.109612
   33  C  2  Y   -0.087898  -0.497574  -0.024274   0.168692  -2.256724
   34  C  2  Z    0.312653   2.999979  -0.049977   2.031768  -2.955654
   35  C  2 XX    0.000276   0.028771   0.000736   0.007349   0.005478
   36  C  2 YY    0.008396   0.051285  -0.000721   0.011142  -0.021044
   37  C  2 ZZ   -0.008672  -0.080057  -0.000016  -0.018491   0.015567
   38  C  2 XY    0.035019  -0.004600  -0.010191  -0.000153   0.002149
   39  C  2 XZ    0.024686  -0.001142   0.015205  -0.000226   0.000499
   40  C  2 YZ   -0.001040  -0.021186  -0.000023   0.006014  -0.007260
   41  C  2  S   -0.679124  -4.208648  -0.050711   0.593028   0.741599
   42  C  2  X   -0.477138  -0.077811   0.537241  -0.002022   0.137381
   43  C  2  Y    0.285981   2.641206  -0.004950  -0.622741  -2.753886
   44  C  2  Z    0.475370   3.923373   0.013142   0.614564  -1.912487
   45  C  2 XX    0.061199   0.354439   0.015202   0.146221   0.896704
   46  C  2 YY    0.008143   0.380517  -0.026359   0.770776  -0.957104
   47  C  2 ZZ   -0.069343  -0.734956   0.011157  -0.916997   0.060400
   48  C  2 XY   -0.362520   0.030325  -0.179755  -0.027441   0.108590
   49  C  2 XZ   -0.168227  -0.039697   0.326480  -0.019061  -0.002346
   50  C  2 YZ    0.110187   1.152057   0.017109   0.730035   0.121063
   51  H  3  S   -0.005281  -0.020811   0.000569   0.053739  -0.034461
   52  H  3  S   -0.316573  -2.960132   0.096023  -3.281996   6.779251
   53  H  3  X    0.004903  -0.000203   0.000131   0.000035  -0.000023
   54  H  3  Y    0.000052  -0.000661   0.000030   0.000400   0.002064
   55  H  3  Z   -0.003830  -0.034505   0.000076  -0.009674   0.008934
   56  H  3  S   -0.388537  -2.901931   0.005704  -0.573765   3.010210
   57  H  3  X    1.508822  -0.207029  -0.384392  -0.038165   0.097896
   58  H  3  Y    0.181640   1.034591  -0.025689   0.482197  -1.428329
   59  H  3  Z   -0.101345  -1.066185  -0.025743   0.741319  -0.883439
   60  H  4  S   -0.009163  -0.051406   0.001282   0.026336   0.038977
   61  H  4  S   -0.037965  -0.564167  -0.018377   4.306496   0.164954
   62  H  4  X    0.005057  -0.000064  -0.011974  -0.000193  -0.000447
   63  H  4  Y    0.000698  -0.000904  -0.000178   0.005049   0.003895
   64  H  4  Z    0.000369   0.004113   0.000095   0.002906   0.000756
   65  H  4  S   -0.119632  -1.318918  -0.008411   4.141009   0.210943
   66  H  4  X    1.282986  -0.129632   0.718956   0.008602   0.041491
   67  H  4  Y    0.081488   0.144101   0.009550  -0.100230  -0.291148
   68  H  4  Z    0.068933   0.772443  -0.010738   1.551744  -0.437554
   69  H  5  S    0.001378   0.045245   0.002191   0.008485   0.022198
   70  H  5  S    0.306195   3.335351   0.008823  -2.645369   0.512282
   71  H  5  X   -0.006438   0.000467  -0.010072  -0.000492   0.000195
   72  H  5  Y   -0.000004   0.008269  -0.000114   0.014467   0.000577
   73  H  5  Z   -0.003577  -0.032774  -0.000173  -0.018263   0.001684
   74  H  5  S    0.440008   3.672850   0.036794  -3.843036  -0.959831
   75  H  5  X   -0.461487   0.031626   1.620031   0.016272  -0.022013
   76  H  5  Y   -0.085104  -0.551383   0.037728  -0.406447  -0.216346
   77  H  5  Z    0.013872   0.402920  -0.008423  -0.909740  -0.196441

                     31         32         33         34         35
                    0.4382     0.4437     0.4484     0.4762     0.4834
                     A          A          A          A          A   
    1  C  1  S    0.064973   0.011204   0.003754   0.022158   0.002791
    2  C  1  S    0.030121  -0.049443  -0.002691  -0.024545   0.026324
    3  C  1  S   -4.156260   0.937037   0.028596  -2.188243  -0.133697
    4  C  1  X   -0.003506  -0.043700   0.245964   0.013774   0.045483
    5  C  1  Y    0.025747  -0.064563   0.001678  -0.135055  -0.040373
    6  C  1  Z    0.080504  -0.002595   0.015992  -0.007718   0.073930
    7  C  1  X   -0.028330  -0.325002   1.786608   0.158440   0.278147
    8  C  1  Y   -0.612878   1.206382   0.501384  -3.583456   0.676667
    9  C  1  Z    5.971262   3.664098   0.703988  -0.753627   0.719958
   10  C  1 XX    0.017636  -0.008875  -0.000180  -0.012770   0.001902
   11  C  1 YY   -0.026585  -0.004807  -0.001783   0.012827  -0.001641
   12  C  1 ZZ    0.008949   0.013682   0.001962  -0.000057  -0.000261
   13  C  1 XY    0.001286  -0.000868   0.002097  -0.000757   0.005116
   14  C  1 XZ   -0.000089   0.000603  -0.013887  -0.001038   0.031303
   15  C  1 YZ    0.020521   0.011287  -0.000820  -0.012835  -0.012680
   16  C  1  S   -6.868851  -3.815556  -1.176671   3.545563  -1.053762
   17  C  1  X   -0.016790  -0.210515   1.120171   0.061195  -0.172832
   18  C  1  Y   -0.579702   1.632976   0.416809  -0.776115   0.270309
   19  C  1  Z    1.105533   0.213432  -0.021803   0.792553  -0.011166
   20  C  1 XX    0.583147   0.246726   0.102542  -0.452211   0.053166
   21  C  1 YY   -1.960467  -0.732279  -0.139359   0.488268  -0.041148
   22  C  1 ZZ    1.377319   0.485553   0.036817  -0.036057  -0.012017
   23  C  1 XY    0.062848   0.077253  -0.248971  -0.061712   0.320537
   24  C  1 XZ   -0.010693   0.164586  -0.098544   0.036270  -1.406201
   25  C  1 YZ    0.583638  -2.622480  -0.410070  -0.146548  -0.393705
   26  C  2  S    0.062922   0.027577   0.003199   0.053745   0.002316
   27  C  2  S   -0.000042  -0.023544  -0.010275   0.012771  -0.026536
   28  C  2  S   -6.509127  -2.398953  -0.333635  -4.295717  -0.602878
   29  C  2  X    0.000368   0.024901  -0.253688  -0.005872   0.249450
   30  C  2  Y    0.128562   0.064246   0.002891  -0.137394   0.003858
   31  C  2  Z    0.027133  -0.082774   0.000946  -0.174475   0.046272
   32  C  2  X    0.042550  -0.093110  -0.712592   0.059399   1.514803
   33  C  2  Y   -0.679374   3.203897   0.441975  -1.438955   0.157153
   34  C  2  Z    3.113195   2.751324   0.531611  -2.333884   0.621719
   35  C  2 XX    0.033261  -0.001133  -0.000441  -0.011014  -0.003504
   36  C  2 YY   -0.012444   0.026936   0.004312   0.016753   0.003775
   37  C  2 ZZ   -0.020816  -0.025803  -0.003871  -0.005739  -0.000270
   38  C  2 XY    0.002056  -0.002276   0.004190  -0.001483  -0.004313
   39  C  2 XZ    0.001033   0.000356  -0.015368  -0.001871  -0.001835
   40  C  2 YZ   -0.020217   0.054294   0.008422   0.013734   0.010459
   41  C  2  S   -0.726327   1.353061   0.609255  -4.638051   0.794998
   42  C  2  X    0.015194   0.134956  -1.171799  -0.028643   0.529313
   43  C  2  Y    0.506719   0.036023  -0.072167  -0.233518  -0.004248
   44  C  2  Z   -0.232317  -0.127529  -0.106152   0.146206  -0.084142
   45  C  2 XX    0.042576   0.218472   0.081146  -0.143793  -0.152856
   46  C  2 YY    0.526090   1.354805   0.123352   0.099692  -0.033482
   47  C  2 ZZ   -0.568665  -1.573278  -0.204498   0.044100   0.186338
   48  C  2 XY    0.001664  -0.027042  -0.663837  -0.023882   0.960132
   49  C  2 XZ   -0.001563  -0.152174   1.045511   0.079813   0.276432
   50  C  2 YZ   -0.388801  -0.824415  -0.035287  -0.350481   0.234108
   51  H  3  S   -0.092422   0.185409   0.030946   0.131881   0.050268
   52  H  3  S    1.169999  -3.195686  -0.628194   6.392056  -0.321420
   53  H  3  X    0.000853   0.000979  -0.017142  -0.002057   0.021848
   54  H  3  Y   -0.018800   0.013319   0.000541   0.029475   0.003568
   55  H  3  Z   -0.020526   0.025353   0.004406   0.003772   0.008972
   56  H  3  S   -0.036615  -0.205697  -0.023382   0.878655  -0.058833
   57  H  3  X   -0.001795  -0.043025   0.740314   0.176871  -1.384600
   58  H  3  Y   -0.417120  -0.181201   0.097646  -3.210942   0.086969
   59  H  3  Z   -0.075750   1.449272   0.171334  -0.993010  -0.461293
   60  H  4  S   -0.044285  -0.080886  -0.018711   0.014275  -0.058561
   61  H  4  S    6.269146   9.186892   1.952524  -5.676269   1.703335
   62  H  4  X   -0.000238  -0.001971   0.016802   0.000668  -0.004808
   63  H  4  Y    0.007148  -0.018225  -0.002173   0.003960   0.000862
   64  H  4  Z   -0.006200  -0.011984  -0.000007  -0.000279   0.012275
   65  H  4  S    1.433607   1.864401   0.415887  -0.870481   0.215782
   66  H  4  X   -0.031354   0.139969  -1.297861  -0.003601  -0.162933
   67  H  4  Y    1.148178   2.962153   0.549910  -1.570364   0.422768
   68  H  4  Z    1.841351   0.097362   0.071220  -1.216245  -0.013721
   69  H  5  S   -0.177667   0.092109   0.014267   0.112873   0.037313
   70  H  5  S    9.058343  -2.695669  -0.552669   4.639990  -0.582825
   71  H  5  X    0.000196  -0.001964   0.007978  -0.000561   0.013202
   72  H  5  Y   -0.007080  -0.005426  -0.000836   0.022853   0.004108
   73  H  5  Z    0.007172  -0.004144  -0.001311   0.002921  -0.003490
   74  H  5  S    1.531859  -0.552822  -0.152594   0.819166  -0.032562
   75  H  5  X    0.054929   0.076528  -0.435373   0.079764  -1.133603
   76  H  5  Y   -2.081617   1.516758   0.271727  -2.542141   0.030629
   77  H  5  Z    1.154159   0.953918   0.059588   1.417667  -0.106309

                     36         37         38         39         40
                    0.4875     0.4931     0.5050     0.5567     0.5630
                     A          A          A          A          A   
    1  C  1  S    0.015668   0.103770  -0.026340   0.076569   0.016688
    2  C  1  S   -0.104583  -0.001103  -0.028539   0.022794   0.005578
    3  C  1  S   -1.956812  -8.208245   4.435236  -8.227239  -1.652258
    4  C  1  X    0.015583  -0.006925   0.004960   0.003938  -0.071727
    5  C  1  Y    0.169337  -0.000855  -0.108512  -0.059996  -0.006418
    6  C  1  Z   -0.223119   0.331956  -0.091142  -0.139566  -0.032551
    7  C  1  X    0.198037  -0.013969   0.272609   0.244181  -1.355547
    8  C  1  Y   -0.384570  -1.000725  -7.084906  -0.153647  -0.066703
    9  C  1  Z   -2.855541  -2.556647   1.430208  -1.504907  -0.568832
   10  C  1 XX   -0.010476   0.009157  -0.006392   0.026708   0.006041
   11  C  1 YY    0.014363   0.030971  -0.009130  -0.007867  -0.002246
   12  C  1 ZZ   -0.003887  -0.040127   0.015522  -0.018841  -0.003795
   13  C  1 XY    0.000522  -0.000700   0.000457   0.001984  -0.002414
   14  C  1 XZ    0.004745  -0.000966   0.001003  -0.010381   0.054901
   15  C  1 YZ    0.054196  -0.004088   0.013776  -0.027851  -0.003300
   16  C  1  S    4.527903  -5.299126  -4.739381 -14.384222  -3.388012
   17  C  1  X   -0.002711   0.009552   0.054578   0.017226  -0.227703
   18  C  1  Y   -0.159432  -0.596881  -1.882452   0.884598   0.192661
   19  C  1  Z    0.420839  -0.237405  -0.972550  -4.740931  -1.118478
   20  C  1 XX   -0.309935   0.325116   0.556912  -0.074104   0.114271
   21  C  1 YY    0.618453   2.625716  -0.683523  -1.788988  -0.387434
   22  C  1 ZZ   -0.308518  -2.950832   0.126611   1.863092   0.273163
   23  C  1 XY    0.032599  -0.079429   0.068242   0.337779  -1.577392
   24  C  1 XZ   -0.356078   0.049398  -0.101531   0.362102  -2.142568
   25  C  1 YZ    0.763070   0.380025   0.271549   0.224729   0.037196
   26  C  2  S   -0.007152  -0.088436  -0.030147  -0.049842  -0.011908
   27  C  2  S    0.087797  -0.084783  -0.008805   0.132626   0.025880
   28  C  2  S    2.460370  10.093967   2.686892   2.809770   0.819558
   29  C  2  X    0.043419  -0.007777   0.004984  -0.071596   0.310896
   30  C  2  Y    0.069076  -0.022744  -0.016894  -0.000327   0.004994
   31  C  2  Z   -0.186331   0.183349  -0.003374  -0.077389  -0.016334
   32  C  2  X    0.347346  -0.125038  -0.059099  -0.258481   1.416484
   33  C  2  Y   -0.563472   1.133117   3.267276   0.593797   0.073499
   34  C  2  Z   -3.148587  -2.929828   2.591151  -1.382675  -0.510171
   35  C  2 XX    0.009609  -0.049733   0.003545   0.010212   0.002617
   36  C  2 YY   -0.013302   0.004693   0.006686  -0.026746  -0.006850
   37  C  2 ZZ    0.003693   0.045040  -0.010231   0.016534   0.004233
   38  C  2 XY    0.001564  -0.002308  -0.000762   0.007528  -0.026617
   39  C  2 XZ   -0.000134  -0.000190  -0.001291  -0.004237   0.032920
   40  C  2 YZ   -0.030889   0.007725   0.009387  -0.014513  -0.001921
   41  C  2  S   -4.364849   5.552263   5.738527  15.346583   3.646327
   42  C  2  X    0.106487  -0.034082  -0.029269  -0.029940   0.390694
   43  C  2  Y   -0.214102   0.472153   0.963789  -1.148397  -0.243094
   44  C  2  Z    0.385759  -0.743848  -0.697276  -3.715592  -0.905194
   45  C  2 XX    0.216044  -0.337917  -0.022082  -0.364129  -0.088428
   46  C  2 YY    0.292430  -0.534488   1.489269  -0.909881  -0.187726
   47  C  2 ZZ   -0.508474   0.872405  -1.467187   1.274010   0.276155
   48  C  2 XY    0.204553  -0.033818  -0.003369   0.036161  -0.049034
   49  C  2 XZ    0.188582  -0.041879   0.080623   0.300897  -1.881081
   50  C  2 YZ   -0.926799   0.253619  -0.348392   1.046982   0.190972
   51  H  3  S   -0.179346  -0.023299   0.045336  -0.151959  -0.024114
   52  H  3  S    2.458212  -4.034750  -7.323561  -3.015949  -0.553149
   53  H  3  X    0.005055  -0.000878   0.000767   0.000564   0.001804
   54  H  3  Y   -0.006127   0.015037   0.008539  -0.035857  -0.005697
[...]
 II,JST,KST,LST =  2  1  1  1 NREC =         1 INTLOC =    1
 II,JST,KST,LST =  3  1  1  1 NREC =         1 INTLOC =    1
 II,JST,KST,LST =  4  1  1  1 NREC =         1 INTLOC =    1
 II,JST,KST,LST =  5  1  1  1 NREC =         1 INTLOC =    1
 II,JST,KST,LST =  6  1  1  1 NREC =         1 INTLOC =    1
 II,JST,KST,LST =  7  1  1  1 NREC =         1 INTLOC =    4
 II,JST,KST,LST =  8  1  1  1 NREC =         1 INTLOC =   49
 II,JST,KST,LST =  9  1  1  1 NREC =         1 INTLOC =  436
 II,JST,KST,LST = 10  1  1  1 NREC =         1 INTLOC =  436
 II,JST,KST,LST = 11  1  1  1 NREC =         1 INTLOC =  436
 II,JST,KST,LST = 12  1  1  1 NREC =         1 INTLOC =  815
 II,JST,KST,LST = 13  1  1  1 NREC =         1 INTLOC =  815
 II,JST,KST,LST = 14  1  1  1 NREC =         1 INTLOC =  815
 II,JST,KST,LST = 15  1  1  1 NREC =         1 INTLOC =  815
 II,JST,KST,LST = 16  1  1  1 NREC =         1 INTLOC = 8220
 II,JST,KST,LST = 17  1  1  1 NREC =         1 INTLOC = 8220
 II,JST,KST,LST = 18  1  1  1 NREC =         1 INTLOC = 8220
 II,JST,KST,LST = 19  1  1  1 NREC =         2 INTLOC =  625
 II,JST,KST,LST = 20  1  1  1 NREC =         2 INTLOC =  625
 II,JST,KST,LST = 21  1  1  1 NREC =         2 INTLOC =13195
 II,JST,KST,LST = 22  1  1  1 NREC =        16 INTLOC = 6516
 II,JST,KST,LST = 23  1  1  1 NREC =        20 INTLOC = 7306
 II,JST,KST,LST = 24  1  1  1 NREC =        23 INTLOC =10709
 II,JST,KST,LST = 25  1  1  1 NREC =        24 INTLOC =10763
 II,JST,KST,LST = 26  1  1  1 NREC =        24 INTLOC =10763
 II,JST,KST,LST = 27  1  1  1 NREC =        26 INTLOC = 5538
 II,JST,KST,LST = 28  1  1  1 NREC =        27 INTLOC = 5592
 II,JST,KST,LST = 29  1  1  1 NREC =        28 INTLOC = 2682
 II,JST,KST,LST = 30  1  1  1 NREC =        29 INTLOC =10881
 II,JST,KST,LST = 31  1  1  1 NREC =        29 INTLOC =10881
 II,JST,KST,LST = 32  1  1  1 NREC =        31 INTLOC =11353
 II,JST,KST,LST = 33  1  1  1 NREC =        33 INTLOC = 8393
 II,JST,KST,LST = 34  1  1  1 NREC =        35 INTLOC =  323
 II,JST,KST,LST = 35  1  1  1 NREC =        36 INTLOC =14230
 II,JST,KST,LST = 36  1  1  1 NREC =        36 INTLOC =14230
 II,JST,KST,LST = 37  1  1  1 NREC =        38 INTLOC = 4825
 II,JST,KST,LST = 38  1  1  1 NREC =        42 INTLOC = 5172
 II,JST,KST,LST = 39  1  1  1 NREC =        44 INTLOC =13479
 II,JST,KST,LST = 40  1  1  1 NREC =        47 INTLOC =12346
 II,JST,KST,LST = 41  1  1  1 NREC =        49 INTLOC = 4342
 II,JST,KST,LST = 42  1  1  1 NREC =        56 INTLOC =14893
 II,JST,KST,LST = 43  1  1  1 NREC =        67 INTLOC = 5175
 II,JST,KST,LST = 44  1  1  1 NREC =        68 INTLOC =14149
 II,JST,KST,LST = 45  1  1  1 NREC =        71 INTLOC = 9284
 II,JST,KST,LST = 46  1  1  1 NREC =        77 INTLOC = 8312
 II,JST,KST,LST = 47  1  1  1 NREC =        80 INTLOC = 7887
 II,JST,KST,LST = 48  1  1  1 NREC =        91 INTLOC =12210
 II,JST,KST,LST = 49  1  1  1 NREC =       129 INTLOC =13950
 II,JST,KST,LST = 50  1  1  1 NREC =       129 INTLOC =13950
 II,JST,KST,LST = 51  1  1  1 NREC =       129 INTLOC =13950
 II,JST,KST,LST = 52  1  1  1 NREC =       164 INTLOC = 2636
 II,JST,KST,LST = 53  1  1  1 NREC =       164 INTLOC = 2636
 II,JST,KST,LST = 54  1  1  1 NREC =       171 INTLOC =13435
 II,JST,KST,LST = 55  1  1  1 NREC =       189 INTLOC = 1531
 II,JST,KST,LST = 56  1  1  1 NREC =       193 INTLOC = 6069
 II,JST,KST,LST = 57  1  1  1 NREC =       200 INTLOC = 1701
 II,JST,KST,LST = 58  1  1  1 NREC =       206 INTLOC =10448
 II,JST,KST,LST = 59  1  1  1 NREC =       214 INTLOC = 2109
 II,JST,KST,LST = 60  1  1  1 NREC =       228 INTLOC =12722
 II,JST,KST,LST = 61  1  1  1 NREC =       232 INTLOC = 6948
 II,JST,KST,LST = 62  1  1  1 NREC =       247 INTLOC = 3229
 II,JST,KST,LST = 63  1  1  1 NREC =       251 INTLOC = 5941
 II,JST,KST,LST = 64  1  1  1 NREC =       258 INTLOC =12139
 II,JST,KST,LST = 65  1  1  1 NREC =       271 INTLOC = 8402
 II,JST,KST,LST = 66  1  1  1 NREC =       280 INTLOC = 9891
 SCHWARZ INEQUALITY TEST SKIPPED       41922 INTEGRAL BLOCKS.
 TOTAL NUMBER OF NONZERO TWO-ELECTRON INTEGRALS =            66976580
       4472 INTEGRAL RECORDS WERE STORED ON DISK FILE  8.
  ...... END OF TWO-ELECTRON INTEGRALS .....
 CPU     0: STEP CPU TIME=     0.27 TOTAL CPU TIME=         23.1 (      0.4 MIN)
 TOTAL WALL CLOCK TIME=         23.8 SECONDS, CPU UTILIZATION IS    97.05%

          ---------------------------------------------
          MONOMER ELECTROSTATIC INTERACTION (OWN BASIS)
          ---------------------------------------------

          -------------
          GUESS OPTIONS
          -------------
          GUESS =MOSAVED           NORB  =       0          NORDER=       0
          MIX   =       F          PRTMO =       F          PUNMO =       F
          TOLZ  = 1.0E-08          TOLE  = 1.0E-05
          SYMDEN=       F          PURIFY=       F

 INITIAL GUESS ORBITALS GENERATED BY MOSAVED  ROUTINE.

 STATISTICS FOR GENERATION OF SYMMETRY ORBITAL -Q- MATRIX
 NUMBER OF CARTESIAN ATOMIC ORBITALS=        154
 NUMBER OF SPHERICAL CONTAMINANTS DROPPED=     8
 NUMBER OF LINEARLY DEPENDENT MOS DROPPED=     0
 TOTAL NUMBER OF MOS IN VARIATION SPACE=     146
 ...... END OF INITIAL ORBITAL SELECTION ......
 CPU     0: STEP CPU TIME=     0.01 TOTAL CPU TIME=         23.1 (      0.4 MIN)
 TOTAL WALL CLOCK TIME=         23.8 SECONDS, CPU UTILIZATION IS    97.05%

          ---------------------------
                  UHF SCF CALCULATION
          ---------------------------

 FINAL UHF ENERGY IS     -155.2944526332 AFTER   1 ITERATIONS
 ...... END OF UHF CALCULATION ......
 CPU     0: STEP CPU TIME=     0.09 TOTAL CPU TIME=         23.2 (      0.4 MIN)
 TOTAL WALL CLOCK TIME=         23.9 SECONDS, CPU UTILIZATION IS    97.05%

          -------------
          GUESS OPTIONS
          -------------
          GUESS =MOSAVED           NORB  =       0          NORDER=       0
          MIX   =       F          PRTMO =       F          PUNMO =       F
          TOLZ  = 1.0E-08          TOLE  = 1.0E-05
          SYMDEN=       F          PURIFY=       F

 INITIAL GUESS ORBITALS GENERATED BY MOSAVED  ROUTINE.

 STATISTICS FOR GENERATION OF SYMMETRY ORBITAL -Q- MATRIX
 NUMBER OF CARTESIAN ATOMIC ORBITALS=        154
 NUMBER OF SPHERICAL CONTAMINANTS DROPPED=     8
 NUMBER OF LINEARLY DEPENDENT MOS DROPPED=     0
 TOTAL NUMBER OF MOS IN VARIATION SPACE=     146
 ...... END OF INITIAL ORBITAL SELECTION ......
 CPU     0: STEP CPU TIME=     0.01 TOTAL CPU TIME=         23.2 (      0.4 MIN)
 TOTAL WALL CLOCK TIME=         23.9 SECONDS, CPU UTILIZATION IS    97.05%

          ---------------------------
                  UHF SCF CALCULATION
          ---------------------------

 DIRECT SCF CALCULATION, SCHWRZ=T   FDIFF=T
 SCHWARZ INEQUALITY OVERHEAD:     11935 INTEGRALS, T=        0.00

 FINAL UHF ENERGY IS     -331.4915212431 AFTER   1 ITERATIONS
 ...... END OF UHF CALCULATION ......
 CPU     0: STEP CPU TIME=     0.27 TOTAL CPU TIME=         23.4 (      0.4 MIN)
 TOTAL WALL CLOCK TIME=         24.2 SECONDS, CPU UTILIZATION IS    97.00%

 XEDA STEP ENERGY SUMMATION
 ETOT =       -155.29445263     ENUC =        102.73232954
 EEXCH=        -22.94361624

          --------------------------------------------------
          MONOMER EXCHANGE-REPULSION INTERACTION (OWN BASIS)
          --------------------------------------------------

          -------------
          GUESS OPTIONS
          -------------
          GUESS =MOSAVED           NORB  =       0          NORDER=       0
          MIX   =       F          PRTMO =       F          PUNMO =       F
          TOLZ  = 1.0E-08          TOLE  = 1.0E-05
          SYMDEN=       F          PURIFY=       F

 INITIAL GUESS ORBITALS GENERATED BY MOSAVED  ROUTINE.

 STATISTICS FOR GENERATION OF SYMMETRY ORBITAL -Q- MATRIX
 NUMBER OF CARTESIAN ATOMIC ORBITALS=        154
 NUMBER OF SPHERICAL CONTAMINANTS DROPPED=     8
 NUMBER OF LINEARLY DEPENDENT MOS DROPPED=     0
 TOTAL NUMBER OF MOS IN VARIATION SPACE=     146
 ...... END OF INITIAL ORBITAL SELECTION ......
 CPU     0: STEP CPU TIME=     0.01 TOTAL CPU TIME=         23.4 (      0.4 MIN)
 TOTAL WALL CLOCK TIME=         24.2 SECONDS, CPU UTILIZATION IS    97.00%

          ---------------------------
                  UHF SCF CALCULATION
          ---------------------------

 FINAL UHF ENERGY IS     -154.6299127963 AFTER   1 ITERATIONS
 ...... END OF UHF CALCULATION ......
 CPU     0: STEP CPU TIME=     0.08 TOTAL CPU TIME=         23.5 (      0.4 MIN)
 TOTAL WALL CLOCK TIME=         24.3 SECONDS, CPU UTILIZATION IS    97.00%

 XEDA STEP ENERGY SUMMATION
 ETOT =       -154.62991280     ENUC =        102.73232954

          ---------------------------------------------
          MONOMER ELECTROSTATIC INTERACTION (ALL BASIS)
          ---------------------------------------------

          -------------
          GUESS OPTIONS
          -------------
          GUESS =MOSAVED           NORB  =       0          NORDER=       0
          MIX   =       F          PRTMO =       F          PUNMO =       F
          TOLZ  = 1.0E-08          TOLE  = 1.0E-05
          SYMDEN=       F          PURIFY=       F

 INITIAL GUESS ORBITALS GENERATED BY MOSAVED  ROUTINE.

 STATISTICS FOR GENERATION OF SYMMETRY ORBITAL -Q- MATRIX
 NUMBER OF CARTESIAN ATOMIC ORBITALS=        154
 NUMBER OF SPHERICAL CONTAMINANTS DROPPED=     8
 NUMBER OF LINEARLY DEPENDENT MOS DROPPED=     0
 TOTAL NUMBER OF MOS IN VARIATION SPACE=     146
 ...... END OF INITIAL ORBITAL SELECTION ......
 CPU     0: STEP CPU TIME=     0.01 TOTAL CPU TIME=         23.5 (      0.4 MIN)
 TOTAL WALL CLOCK TIME=         24.3 SECONDS, CPU UTILIZATION IS    97.00%

          ---------------------------
                  UHF SCF CALCULATION
          ---------------------------

 FINAL UHF ENERGY IS     -155.3015458204 AFTER   1 ITERATIONS
 ...... END OF UHF CALCULATION ......
 CPU     0: STEP CPU TIME=     0.08 TOTAL CPU TIME=         23.6 (      0.4 MIN)
 TOTAL WALL CLOCK TIME=         24.3 SECONDS, CPU UTILIZATION IS    97.00%

          -------------
          GUESS OPTIONS
          -------------
          GUESS =MOSAVED           NORB  =       0          NORDER=       0
          MIX   =       F          PRTMO =       F          PUNMO =       F
          TOLZ  = 1.0E-08          TOLE  = 1.0E-05
          SYMDEN=       F          PURIFY=       F

 INITIAL GUESS ORBITALS GENERATED BY MOSAVED  ROUTINE.

 STATISTICS FOR GENERATION OF SYMMETRY ORBITAL -Q- MATRIX
 NUMBER OF CARTESIAN ATOMIC ORBITALS=        154
 NUMBER OF SPHERICAL CONTAMINANTS DROPPED=     8
 NUMBER OF LINEARLY DEPENDENT MOS DROPPED=     0
 TOTAL NUMBER OF MOS IN VARIATION SPACE=     146
 ...... END OF INITIAL ORBITAL SELECTION ......
 CPU     0: STEP CPU TIME=     0.01 TOTAL CPU TIME=         23.6 (      0.4 MIN)
 TOTAL WALL CLOCK TIME=         24.3 SECONDS, CPU UTILIZATION IS    97.00%

          ---------------------------
                  UHF SCF CALCULATION
          ---------------------------

 DIRECT SCF CALCULATION, SCHWRZ=T   FDIFF=T
 SCHWARZ INEQUALITY OVERHEAD:     11935 INTEGRALS, T=        0.00

 FINAL UHF ENERGY IS     -331.5145892583 AFTER   1 ITERATIONS
 ...... END OF UHF CALCULATION ......
 CPU     0: STEP CPU TIME=     0.28 TOTAL CPU TIME=         23.9 (      0.4 MIN)
 TOTAL WALL CLOCK TIME=         24.6 SECONDS, CPU UTILIZATION IS    97.00%

 XEDA STEP ENERGY SUMMATION
 ETOT =       -155.30154582     ENUC =        102.73232954
 EEXCH=        -22.94450208

          --------------------------------------------------
          MONOMER EXCHANGE-REPULSION INTERACTION (ALL BASIS)
          --------------------------------------------------

          -------------
          GUESS OPTIONS
          -------------
          GUESS =MOSAVED           NORB  =       0          NORDER=       0
          MIX   =       F          PRTMO =       F          PUNMO =       F
          TOLZ  = 1.0E-08          TOLE  = 1.0E-05
          SYMDEN=       F          PURIFY=       F

 INITIAL GUESS ORBITALS GENERATED BY MOSAVED  ROUTINE.

 STATISTICS FOR GENERATION OF SYMMETRY ORBITAL -Q- MATRIX
 NUMBER OF CARTESIAN ATOMIC ORBITALS=        154
 NUMBER OF SPHERICAL CONTAMINANTS DROPPED=     8
 NUMBER OF LINEARLY DEPENDENT MOS DROPPED=     0
 TOTAL NUMBER OF MOS IN VARIATION SPACE=     146
 ...... END OF INITIAL ORBITAL SELECTION ......
 CPU     0: STEP CPU TIME=     0.01 TOTAL CPU TIME=         23.9 (      0.4 MIN)
 TOTAL WALL CLOCK TIME=         24.6 SECONDS, CPU UTILIZATION IS    97.01%

          ---------------------------
                  UHF SCF CALCULATION
          ---------------------------

 FINAL UHF ENERGY IS     -154.6348635339 AFTER   1 ITERATIONS
 ...... END OF UHF CALCULATION ......
 CPU     0: STEP CPU TIME=     0.08 TOTAL CPU TIME=         24.0 (      0.4 MIN)
 TOTAL WALL CLOCK TIME=         24.7 SECONDS, CPU UTILIZATION IS    97.01%

 XEDA STEP ENERGY SUMMATION
 ETOT =       -154.63486353     ENUC =        102.73232954

          --------------------------------
          RESULTS OF INTERACTION ANALYSIS
          --------------------------------

     ENERGY TERMS
     T   ELECTRON KINETIC AND COULOMB POTENTIAL
     X   E-E EXCHANGE COMBINE WITH DIAGNANAL VALUE
     N   NUCLEUS-NUCLEUS REPULSION ENERGY

 --------------
 MONOMER ENERGY
 --------------

 MONOMER    1

                   OWN BASIS           ALL BASIS

 T              -93.95835689        -93.95873043
 X              -11.31401301        -11.31422781
 N               27.89463837         27.89463837
 EC              -0.47432097         -0.47477673
 E              -77.85205251        -77.85309661

 MONOMER    2

                   OWN BASIS           ALL BASIS

 T              -93.95832318        -93.95868699
 X              -11.31400903        -11.31422875
 N               27.89460041         27.89460041
 EC              -0.47432507         -0.47478191
 E              -77.85205686        -77.85309724

 ------------------------------------------------------------
 SUPER MOLECULE ENERGY  USING NON-ANTISYMMETRIC WAVEFUNCTION
 (ELECTROSTATIC ENERGY: T N CHANGE)
 ------------------------------------------------------------

              FROM OWN BASIS      FROM ALL BASIS
 T             -235.08316593       -235.08937328
 X              -22.62802204        -22.62845656
 N              102.73232954        102.73232954
 E             -154.97885843       -154.98550030

 ----------------------------------------------------------------------
 SUPER MOLECULE ENERGY  USING ANTISYMMETRIC NONORTHONORMAL WAVEFUNCTION
 (EXCHANGE ENERGY: ONLY X CHANGES)
 ----------------------------------------------------------------------

              FROM OWN BASIS      FROM ALL BASIS
 T             -235.08316593       -235.08937328
 X              -22.94361624        -22.94450208
 N              102.73232954        102.73232954
 E             -155.29445263       -155.30154582

 -----------------------------------------------------------------------
 SUPER MOLECULE ENERGY  USING ANTISYMMETRIC AND ORTHONORMAL WAVEFUNCTION
 (REPULSION ENERGY: T X CHANGE)
 -----------------------------------------------------------------------

              FROM OWN BASIS      FROM ALL BASIS
 T+X           -257.36224234       -257.36719308
 N              102.73232954        102.73232954
 E             -154.62991280       -154.63486353

 ---------------------------------------------
 SUPER MOLECULE ENERGY  USING SCF WAVEFUNCTION
 (POLARIZATION ENERGY: T X CHANGE)
 ---------------------------------------------
 T+X           -257.63945302
 N              102.73232954
 EC              -0.98439482
 E             -155.89151830


                   *******************************
                   SUMMARY OF INTERACTION ENERGIES
                     XEDA IN XIAMEN UNIVERSITY    
                    - ZHEN TANG AND PEIFENG SU -  
                   *******************************


 -------------
 OWN BASIS SET                                       HARTREE          KCAL/MOL
 -------------
 ELECTROSTATIC ENERGY                  ES=         -0.223395           -140.18
 EXCHANGE ENERGY                       EX=         -0.315594           -198.04
 REPULSION ENERGY                     REP=          0.664540            417.01
 POLARIZATION ENERGY                  POL=         -0.277211           -173.95
 ELECTRON CORRELATION                CORR=         -0.035749            -22.43
 TOTAL INTERACTION ENERGY               E=         -0.187409           -117.60
  

 -------------
 ALL BASIS SET                                       HARTREE          KCAL/MOL
 -------------
 ELECTROSTATIC ENERGY                  ES=         -0.228865           -143.62
 EXCHANGE ENERGY                       EX=         -0.316046           -198.32
 REPULSION ENERGY                     REP=          0.666682            418.35
 POLARIZATION ENERGY                  POL=         -0.272260           -170.85
 ELECTRON CORRELATION                CORR=         -0.034836            -21.86
 TOTAL INTERACTION ENERGY               E=         -0.185324           -116.29
  

                     ***************************
                     END OF INTERACTION ANALYSIS
                     ***************************

              1301896  WORDS OF DYNAMIC MEMORY USED
 EXECUTION OF GAMESS TERMINATED NORMALLY 14:31:21 25-DEC-2023    
 DDI: 263640 bytes (0.3 MB / 0 MWords) used by master data server.

 ----------------------------------------
 CPU timing information for all processes
 ========================================
 0: 23.477 + 0.594 = 24.72
 1: 23.428 + 0.621 = 24.50
 2: 23.404 + 0.659 = 24.63
 3: 23.366 + 0.626 = 23.993
 4: 23.457 + 0.725 = 24.183
 5: 23.378 + 0.633 = 24.12
 6: 23.333 + 0.618 = 23.951
 7: 23.373 + 0.608 = 23.982
 8: 23.488 + 0.694 = 24.182
 9: 23.409 + 0.603 = 24.12
 10: 23.409 + 0.639 = 24.48
 11: 23.389 + 0.581 = 23.970
 12: 23.409 + 0.688 = 24.98
 13: 23.383 + 0.598 = 23.981
 14: 23.383 + 0.646 = 24.29
 15: 23.362 + 0.597 = 23.959
 ----------------------------------------
 ddikick.x: exited gracefully.
----- accounting info -----
Files used on the master node w015 were:
-rw-r--r-- 1 xacs0647 10000  2703863 Dec 25 14:31 /job_dir/17_1685740/17.dat
-rw-r--r-- 1 xacs0647 10000      243 Dec 25 14:31 /job_dir/17_1685740/17.err
-rw-r--r-- 1 xacs0647 10000      837 Dec 25 14:30 /job_dir/17_1685740/17.F05
-rw-r--r-- 1 xacs0647 10000 55624944 Dec 25 14:31 /job_dir/17_1685740/17.F08
-rw-r--r-- 1 xacs0647 10000 43203840 Dec 25 14:31 /job_dir/17_1685740/17.F08.001
-rw-r--r-- 1 xacs0647 10000 45004000 Dec 25 14:31 /job_dir/17_1685740/17.F08.002
-rw-r--r-- 1 xacs0647 10000 48424304 Dec 25 14:31 /job_dir/17_1685740/17.F08.003
-rw-r--r-- 1 xacs0647 10000 52744688 Dec 25 14:31 /job_dir/17_1685740/17.F08.004
-rw-r--r-- 1 xacs0647 10000 49324384 Dec 25 14:31 /job_dir/17_1685740/17.F08.005
-rw-r--r-- 1 xacs0647 10000 56164992 Dec 25 14:31 /job_dir/17_1685740/17.F08.006
-rw-r--r-- 1 xacs0647 10000 50044448 Dec 25 14:31 /job_dir/17_1685740/17.F08.007
-rw-r--r-- 1 xacs0647 10000 57245088 Dec 25 14:31 /job_dir/17_1685740/17.F08.008
-rw-r--r-- 1 xacs0647 10000 48604320 Dec 25 14:31 /job_dir/17_1685740/17.F08.009
-rw-r--r-- 1 xacs0647 10000 49144368 Dec 25 14:31 /job_dir/17_1685740/17.F08.010
-rw-r--r-- 1 xacs0647 10000 48064272 Dec 25 14:31 /job_dir/17_1685740/17.F08.011
-rw-r--r-- 1 xacs0647 10000 55624944 Dec 25 14:31 /job_dir/17_1685740/17.F08.012
-rw-r--r-- 1 xacs0647 10000 51304560 Dec 25 14:31 /job_dir/17_1685740/17.F08.013
-rw-r--r-- 1 xacs0647 10000 51304560 Dec 25 14:31 /job_dir/17_1685740/17.F08.014
-rw-r--r-- 1 xacs0647 10000 43203840 Dec 25 14:31 /job_dir/17_1685740/17.F08.015
-rw-r--r-- 1 xacs0647 10000  5758720 Dec 25 14:31 /job_dir/17_1685740/17.F10
-rw-r--r-- 1 xacs0647 10000      837 Dec 25 14:30 /job_dir/17_1685740/17.inp
-rw-r--r-- 1 xacs0647 10000  2403317 Dec 25 14:31 /job_dir/17_1685740/17.out
Mon Dec 25 14:31:24 CST 2023
0.084u 0.080s 0:28.04 0.5%	0+0k 0+40io 0pf+0w
