----- GAMESS execution script 'rungms' -----
This job is running on host w016
under operating system Linux at Mon Dec 25 14:30:56 CST 2023
Available scratch disk space (Kbyte units) at beginning of the job is
Filesystem              1K-blocks     Used Available Use% Mounted on
/dev/mapper/system-root 932514944 12965028 919549916   2% /
GAMESS temporary binary files will be written to /job_dir/18_1685741
GAMESS supplementary output files will be written to /job_dir/18_1685741
Copying input file ./18.inp to your run's scratch directory...
 
Assuming a single but multicore node.
 

 Distributed Data Interface kickoff program.
 Initiating 16 compute processes on 1 nodes to run the following command:
 /share/apps/xeda-apps/xeda-td/gamess.00.x 18 

          *******************************************************
          *                                                     *
          *          GAMESS VERSION = 30 SEP 2020 (R2)          *
          *                                                     *
          *              doi.org/10.1063/5.0005188              *
          *                                                     *
          **************** 64 BIT LINUX VERSION *****************

  GAMESS HAS BEEN MADE POSSIBLE WITH IMPORTANT CONTRIBUTIONS FROM
  THE FOLLOWING INDIVIDUALS (IN ALPHABETICAL ORDER):

     IVANA ADAMOVIC, CHRISTINE AIKENS, TOMOKO AKAMA,
     YURI ALEXEEV, YURIKO AOKI, POOJA ARORA, TOSHIO ASADA,
     ANDREY ASADCHEV, KIM K. BALDRIDGE, PRADIPTA BANDYOPADHYAY,
     MARIA BARYSZ, ROB BELL, JONATHAN BENTZ, COLLEEN BERTONI,
     JERRY A. BOATZ, BRETT BODE, KURT BRORSEN, KURT R. BRORSEN,
     LAIMUTIS BYTAUTAS, CALEB CARLIN, LAURA CARRINGTON,
     GALINA CHABAN, BENOIT CHAMPAGNE, WEI CHEN, MAHITO CHIBA,
     DAN CHIPMAN, CHEOL HO CHOI, TANNER CULPITT,
     DIPAYAN DATTA, PAUL DAY, ALBERT DEFUSCO,
     NUWAN DESILVA, J. EMILIANO DEUSTUA,
     TIM DUDLEY, MICHEL DUPUIS, STEVEN T. ELBERT,
     DMITRI FEDOROV, ALEX FINDLATER, GRAHAM FLETCHER,
     MARK FREITAG, CHRISTIAN FRIEDL, DAVID GARMER,
     IGOR S. GERASIMOV, KURT GLAESEMANN, MARK S. GORDON,
     JEFFREY GOUR, FENG LONG GU, EMILIE B. GUIDEZ,
     ANASTASIA GUNINA, SHARON HAMMES-SCHIFFER, MASATAKE HARUTA,
     KIMIHIKO HIRAO, YASUHIRO IKABATA, TZVETELIN IORDANOV,
     STEPHAN IRLE, KAZUYA ISHIMURA, JOE IVANIC, FRANK JENSEN,
     JAN H. JENSEN, VISVALDAS KAIRYS, MUNEAKI KAMIYA,
     MICHIO KATOUDA, NAOAKI KAWAKAMI, DAN KEMP, BERNARD KIRTMAN,
     KAZUO KITAURA, MARIUSZ KLOBUKOWSKI, MASATO KOBAYASHI,
     PRAKASHAN KORAMBATH, JACEK KORCHOWIEC, SHIRO KOSEKI,
     KAROL KOWALSKI, JIMMY KROMANN, STANISLAW KUCHARSKI,
     HENRY KURTZ, SAROM SOK LEANG, HUI LI, SHUHUA LI, WEI LI,
     JESSE LUTZ, ALEKSANDR O. LYKHIN, MARCIN MAKOWSKI,
     JOANI MATO, NIKITA MATSUNAGA, BENEDETTA MENNUCCI,
     GRANT MERRILL, NORIYUKI MINEZAWA, VLADIMIR MIRONOV,
     EISAKU MIYOSHI, JOHN A. MONTGOMERY JR., HIROTOSHI MORI,
     JONATHAN MULLIN, MONIKA MUSIAL, SHIGERU NAGASE,
     TAKESHI NAGATA, HIROMI NAKAI, TAKAHITO NAKAJIMA,
     YUYA NAKAJIMA, HARUYUKI NAKANO, HIROYA NAKATA, SEAN NEDD,
     HEATHER NETZLOFF, KIET A. NGUYEN, YOSHIO NISHIMOTO,
     BOSILJKA NJEGIC, RYAN OLSON, MIKE PAK, ROBERTO PEVERATI,
     BUU PHAM, PIOTR PIECUCH, ANNA POMOGAEVA, DAVID POOLE,
     SPENCER PRUITT, OLIVIER QUINET, LUKE ROSKOP,
     KLAUS RUEDENBERG, ANDREW SAND, TOSAPORN SATTASATHUCHANA,
     NOZOMI SAWADA, MICHAEL W. SCHMIDT, PATRICK E. SCHNEIDER,
     JUNJI SEINO, PRACHI SHARMA, JUN SHEN, JIM SHOEMAKER,
     YINAN SHU, DEJUN SI, JONATHAN SKONE, LYUDMILA SLIPCHENKO,
     TONY SMITH, JIE SONG, MARK SPACKMAN, CASPER STEINMANN,
     WALT STEVENS, PEIFENG SU, SHUJUN SU, CHET SWALINA,
     TETSUYA TAKETSUGU, ZHEN TAO, NANDUN THELLAMUREGE
     SEIKEN TOKURA, JACOPO TOMASI, TSUGUKI TOUMA, TAKAO TSUNEDA,
     HIROAKI UMEDA, JORGE LUIS GALVEZ VALLEJO, YALI WANG,
     SIMON WEBB, AARON WEST, THERESA L. WINDUS, MARTA WLOCH,
     PENG XU, KIYOSHI YAGI, SUSUMU YANAGISAWA, YANG YANG,
     SOOHAENG YOO, TAKESHI YOSHIKAWA, FEDERICO ZAHARIEV,
     TOBY ZENG

  WHO ARE SUPPORTED BY THEIR INSTITUTION/UNIVERSITY/COMPANY/GROUP
  (IN ALPHABETICAL ORDER):

     EP ANALYTICS, FACULTES UNIVERSITAIRES NOTRE-DAME DE LA PAIX,
     INSTITUTE FOR MOLECULAR SCIENCE, IOWA STATE UNIVERSITY,
     JACKSON STATE UNIVERSITY, JOHANNES KEPLER UNIVERSITY LINZ,
     KYUSHU UNIVERSITY, MICHIGAN STATE UNIVERSITY,
     MIE UNIVERSITY, MOSCOW STATE UNIVERSITY,
     N. COPERNICUS UNIVERSITY, NAGOYA UNIVERSITY,
     NANJING UNIVERSITY, NAT. INST. OF ADVANCED INDUSTRIAL
     SCIENCE AND TECHNOLOGY, NATIONAL INST. OF STANDARDS AND
     TECHNOLOGY, NESMEYANOV INSTITUTE OF ORGANOELEMENT COMPOUNDS
     OF RUSSIAN ACADEMY OF SCIENCES, OSAKA PREFECTURE UNIVERSITY,
     PENNSYLVANIA STATE UNIVERSITY, TOKYO INSTITUTE OF TECHNOLOGY,
     UNIVERSITY OF AARHUS, UNIVERSITY OF ALBERTA,
     UNIVERSITY OF CALIFORNIA AT SANTA BARBARA,
     UNIVERSITY OF COPENHAGEN, UNIVERSITY OF IOWA,
     UNIVERSITY OF MEMPHIS, UNIVERSITY OF MINNESOTA,
     UNIVERSITY OF NEBRASKA, UNIVERSITY OF NEW ENGLAND,
     UNIVERSITY OF NOTRE DAME, UNIVERSITY OF PISA,
     UNIVERSITY OF SILESIA, UNIVERSITY OF TOKYO,
     UNIVERSITY OF ZURICH, WASEDA UNIVERSITY, YALE UNIVERSITY

  GAMESS SOFTWARE MANAGEMENT TEAM FOR THIS RELEASE:
     MARK S. GORDON (TEAM LEAD),
     BRETT BODE (SENIOR ADVISOR),
     GIUSEPPE BARCA,
     COLLEEN BERTONI,
     KRISTOPHER KEIPERT (ADVISOR),
     SAROM S. LEANG (DEVELOPMENT LEAD),
     BUU PHAM,
     JORGE LUIS GALVEZ VALLEJO (WEBSITE ADMINISTRATOR),
     PENG XU


 PARALLEL VERSION RUNNING ON       16 PROCESSORS IN        1 NODES.

 EXECUTION OF GAMESS BEGUN 14:30:56 25-DEC-2023    

            ECHO OF THE FIRST FEW INPUT CARDS -
 INPUT CARD> $CONTRL SCFTYP=UHF RUNTYP=EDA dfttyp=B3LYP ispher=1 icharg=0 mult=1 $END       
 INPUT CARD> $SYSTEM  mwords=150 memddi=150 $END                                            
 INPUT CARD> $BASIS gbasis=accd $END                                                        
 INPUT CARD> $LMOEDA MATOM(1)=5 5 MCHARG(1)=0 0 MMULT(1)=2 -2 edatyp=gks $end               
 INPUT CARD> $scf DIIS=.TRUE. ETHRSH=2.0 SWDIIS=0.005 $end                                  
 INPUT CARD> $data                                                                          
 INPUT CARD> EDA calculation with XEDA 1.0                                                  
 INPUT CARD> c1                                                                             
 INPUT CARD>C   6   -0.2888652795    0.7839457144   -1.5396718712                           
 INPUT CARD>C   6   -0.2888652795    0.7839457144   -0.1853826940                           
 INPUT CARD>H   1   -0.3322579499    1.7397073801    0.3526990547                           
 INPUT CARD>H   1   -0.2622208628   -0.1453026868   -2.1162148816                           
 INPUT CARD>H   1   -0.3062307140    1.7126502258   -2.1156814905                           
 INPUT CARD>C   6   -0.2888652795   -0.4582845787    0.6625404545                           
 INPUT CARD>C   6    0.8297304332   -1.0888414381    1.0929467652                           
 INPUT CARD>H   1    1.8297633562   -0.7383560713    0.8214539647                           
 INPUT CARD>H   1    0.7819883232   -1.9807214754    1.7229075716                           
 INPUT CARD>H   1   -1.2720920865   -0.8352275770    0.9724793789                           
 INPUT CARD> $end                                                                           
  150000000 WORDS OF MEMORY AVAILABLE

     BASIS OPTIONS
     -------------
     GBASIS=ACCD         IGAUSS=       0      POLAR=NONE    
     NDFUNC=       0     NFFUNC=       0     DIFFSP=       F
     NPFUNC=       0      DIFFS=       F     BASNAM=        


     RUN TITLE
     ---------
  EDA calculation with XEDA 1.0                                                  

 THE POINT GROUP OF THE MOLECULE IS C1      
 THE ORDER OF THE PRINCIPAL AXIS IS     0

 ATOM      ATOMIC                      COORDINATES (BOHR)
           CHARGE         X                   Y                   Z
 C           6.0    -0.5458762256        1.4814425895       -2.9095579476
 C           6.0    -0.5458762256        1.4814425895       -0.3503224945
 H           1.0    -0.6278764826        3.2875702472        0.6665045695
 H           1.0    -0.4955255790       -0.2745822633       -3.9990662574
 H           1.0    -0.5786921385        3.2364396396       -3.9980582943
 C           6.0    -0.5458762256       -0.8660322781        1.2520199148
 C           6.0     1.5679631624       -2.0576119621        2.0653699054
 H           1.0     3.4577513656       -1.3952906561        1.5523229048
 H           1.0     1.4777436564       -3.7430208465        3.2558232125
 H           1.0    -2.4039054746       -1.5783512579        1.8377195548

          INTERNUCLEAR DISTANCES (ANGS.)
          ------------------------------

                1 C          2 C          3 H          4 H          5 H     

   1 C       0.0000000    1.3542892 *  2.1204790 *  1.0938987 *  1.0929688 *
   2 C       1.3542892 *  0.0000000    1.0976772 *  2.1429712 *  2.1421594 *
   3 H       2.1204790 *  1.0976772 *  0.0000000    3.1070411    2.4686660 *
   4 H       1.0938987 *  2.1429712 *  3.1070411    0.0000000    1.8584742 *
   5 H       1.0929688 *  2.1421594 *  2.4686660 *  1.8584742 *  0.0000000  
   6 C       2.5284136 *  1.5040312 *  2.2201471 *  2.7964529 *  3.5258725  
   7 C       3.4189573    2.5283818 *  3.1462473    3.5187130    4.4084077  
   8 H       3.5186511    2.7963745 *  3.3218768    3.6548609    4.3814001  
   9 H       4.4084619    3.5258593    4.1183258    4.3815518    5.4369092  
  10 H       3.1463250    2.2201580 *  2.8102857 *  3.3220278    4.1184107  

                6 C          7 C          8 H          9 H         10 H     

   1 C       2.5284136 *  3.4189573    3.5186511    4.4084619    3.1463250  
   2 C       1.5040312 *  2.5283818 *  2.7963745 *  3.5258593    2.2201580 *
   3 H       2.2201471 *  3.1462473    3.3218768    4.1183258    2.8102857 *
   4 H       2.7964529 *  3.5187130    3.6548609    4.3815518    3.3220278  
   5 H       3.5258725    4.4084077    4.3814001    5.4369092    4.1184107  
   6 C       0.0000000    1.3542924 *  2.1429608 *  2.1421765 *  1.0976717 *
   7 C       1.3542924 *  0.0000000    1.0938986 *  1.0929684 *  2.1204929 *
   8 H       2.1429608 *  1.0938986 *  0.0000000    1.8584733 *  3.1070404  
   9 H       2.1421765 *  1.0929684 *  1.8584733 *  0.0000000    2.4687132 *
  10 H       1.0976717 *  2.1204929 *  3.1070404    2.4687132 *  0.0000000  

  * ... LESS THAN  3.000


     ATOMIC BASIS SET
     ----------------
 THE CONTRACTED PRIMITIVE FUNCTIONS HAVE BEEN UNNORMALIZED
 THE CONTRACTED BASIS FUNCTIONS ARE NOW NORMALIZED TO UNITY

  SHELL TYPE  PRIMITIVE        EXPONENT          CONTRACTION COEFFICIENT(S)

 C         

      1   S       1          6665.0000000    0.000691583963
      1   S       2          1000.0000000    0.005325796153
      1   S       3           228.0000000    0.027060721042
      1   S       4            64.7100000    0.101656846141
      1   S       5            21.0600000    0.274574823617
      1   S       6             7.4950000    0.448294318924
      1   S       7             2.7970000    0.284902610715
      1   S       8             0.5215000    0.015194859206

      2   S       9          6665.0000000   -0.000293269653
      2   S      10          1000.0000000   -0.002318035474
      2   S      11           228.0000000   -0.011499786039
      2   S      12            64.7100000   -0.046826727010
      2   S      13            21.0600000   -0.128466168750
      2   S      14             7.4950000   -0.301266272463
      2   S      15             2.7970000   -0.255630702330
      2   S      16             0.5215000    1.093793361012

      3   S      17             0.1596000    1.000000000000

      4   P      18             9.4390000    0.056979251590
      4   P      19             2.0020000    0.313207211501
      4   P      20             0.5456000    0.760376741738

      5   P      21             0.1517000    1.000000000000

      6   D      22             0.5500000    1.000000000000

      7   S      23             0.0469000    1.000000000000

      8   P      24             0.0404100    1.000000000000

      9   D      25             0.1510000    1.000000000000

 C         

     10   S      26          6665.0000000    0.000691583963
     10   S      27          1000.0000000    0.005325796153
     10   S      28           228.0000000    0.027060721042
     10   S      29            64.7100000    0.101656846141
     10   S      30            21.0600000    0.274574823617
     10   S      31             7.4950000    0.448294318924
     10   S      32             2.7970000    0.284902610715
     10   S      33             0.5215000    0.015194859206

     11   S      34          6665.0000000   -0.000293269653
     11   S      35          1000.0000000   -0.002318035474
     11   S      36           228.0000000   -0.011499786039
     11   S      37            64.7100000   -0.046826727010
     11   S      38            21.0600000   -0.128466168750
     11   S      39             7.4950000   -0.301266272463
     11   S      40             2.7970000   -0.255630702330
     11   S      41             0.5215000    1.093793361012

     12   S      42             0.1596000    1.000000000000

     13   P      43             9.4390000    0.056979251590
     13   P      44             2.0020000    0.313207211501
     13   P      45             0.5456000    0.760376741738

     14   P      46             0.1517000    1.000000000000

     15   D      47             0.5500000    1.000000000000

     16   S      48             0.0469000    1.000000000000

     17   P      49             0.0404100    1.000000000000

     18   D      50             0.1510000    1.000000000000

 H         

     19   S      51            13.0100000    0.033498726390
     19   S      52             1.9620000    0.234800801174
     19   S      53             0.4446000    0.813682957883

     20   S      54             0.1220000    1.000000000000

     21   P      55             0.7270000    1.000000000000

     22   S      56             0.0297400    1.000000000000

     23   P      57             0.1410000    1.000000000000

 H         

     24   S      58            13.0100000    0.033498726390
     24   S      59             1.9620000    0.234800801174
     24   S      60             0.4446000    0.813682957883

     25   S      61             0.1220000    1.000000000000

     26   P      62             0.7270000    1.000000000000

     27   S      63             0.0297400    1.000000000000

     28   P      64             0.1410000    1.000000000000

 H         

     29   S      65            13.0100000    0.033498726390
     29   S      66             1.9620000    0.234800801174
     29   S      67             0.4446000    0.813682957883

     30   S      68             0.1220000    1.000000000000

     31   P      69             0.7270000    1.000000000000

     32   S      70             0.0297400    1.000000000000

     33   P      71             0.1410000    1.000000000000

 C         

     34   S      72          6665.0000000    0.000691583963
     34   S      73          1000.0000000    0.005325796153
     34   S      74           228.0000000    0.027060721042
     34   S      75            64.7100000    0.101656846141
     34   S      76            21.0600000    0.274574823617
     34   S      77             7.4950000    0.448294318924
     34   S      78             2.7970000    0.284902610715
     34   S      79             0.5215000    0.015194859206

     35   S      80          6665.0000000   -0.000293269653
     35   S      81          1000.0000000   -0.002318035474
     35   S      82           228.0000000   -0.011499786039
     35   S      83            64.7100000   -0.046826727010
     35   S      84            21.0600000   -0.128466168750
     35   S      85             7.4950000   -0.301266272463
     35   S      86             2.7970000   -0.255630702330
     35   S      87             0.5215000    1.093793361012

     36   S      88             0.1596000    1.000000000000

     37   P      89             9.4390000    0.056979251590
     37   P      90             2.0020000    0.313207211501
     37   P      91             0.5456000    0.760376741738

     38   P      92             0.1517000    1.000000000000

     39   D      93             0.5500000    1.000000000000

     40   S      94             0.0469000    1.000000000000

     41   P      95             0.0404100    1.000000000000

     42   D      96             0.1510000    1.000000000000

 C         

     43   S      97          6665.0000000    0.000691583963
     43   S      98          1000.0000000    0.005325796153
     43   S      99           228.0000000    0.027060721042
     43   S     100            64.7100000    0.101656846141
     43   S     101            21.0600000    0.274574823617
     43   S     102             7.4950000    0.448294318924
     43   S     103             2.7970000    0.284902610715
     43   S     104             0.5215000    0.015194859206

     44   S     105          6665.0000000   -0.000293269653
     44   S     106          1000.0000000   -0.002318035474
     44   S     107           228.0000000   -0.011499786039
     44   S     108            64.7100000   -0.046826727010
     44   S     109            21.0600000   -0.128466168750
     44   S     110             7.4950000   -0.301266272463
     44   S     111             2.7970000   -0.255630702330
     44   S     112             0.5215000    1.093793361012

     45   S     113             0.1596000    1.000000000000

     46   P     114             9.4390000    0.056979251590
     46   P     115             2.0020000    0.313207211501
     46   P     116             0.5456000    0.760376741738

     47   P     117             0.1517000    1.000000000000

     48   D     118             0.5500000    1.000000000000

     49   S     119             0.0469000    1.000000000000

     50   P     120             0.0404100    1.000000000000

     51   D     121             0.1510000    1.000000000000

 H         

     52   S     122            13.0100000    0.033498726390
     52   S     123             1.9620000    0.234800801174
     52   S     124             0.4446000    0.813682957883

     53   S     125             0.1220000    1.000000000000

     54   P     126             0.7270000    1.000000000000

     55   S     127             0.0297400    1.000000000000

     56   P     128             0.1410000    1.000000000000

 H         

     57   S     129            13.0100000    0.033498726390
     57   S     130             1.9620000    0.234800801174
     57   S     131             0.4446000    0.813682957883

     58   S     132             0.1220000    1.000000000000

     59   P     133             0.7270000    1.000000000000

     60   S     134             0.0297400    1.000000000000

     61   P     135             0.1410000    1.000000000000

 H         

     62   S     136            13.0100000    0.033498726390
     62   S     137             1.9620000    0.234800801174
     62   S     138             0.4446000    0.813682957883

     63   S     139             0.1220000    1.000000000000

     64   P     140             0.7270000    1.000000000000

     65   S     141             0.0297400    1.000000000000

     66   P     142             0.1410000    1.000000000000

 TOTAL NUMBER OF BASIS SET SHELLS             =   66
 NUMBER OF CARTESIAN GAUSSIAN BASIS FUNCTIONS =  154
 NOTE: THIS RUN WILL RESTRICT THE MO VARIATION SPACE TO SPHERICAL HARMONICS.
 THE NUMBER OF ORBITALS KEPT IN THE VARIATIONAL SPACE WILL BE PRINTED LATER.
 NUMBER OF ELECTRONS                          =   30
 CHARGE OF MOLECULE                           =    0
 SPIN MULTIPLICITY                            =    1
 NUMBER OF OCCUPIED ORBITALS (ALPHA)          =   15
 NUMBER OF OCCUPIED ORBITALS (BETA )          =   15
 TOTAL NUMBER OF ATOMS                        =   10
 THE NUCLEAR REPULSION ENERGY IS      102.5448829198

 SELECTED MURRAY-HANDY-LAMING RADIAL GRID

 LEGACY BECKE'S FUZZY CELL METHOD

 SELECTED ORIGINAL BECKE'S PARTITION FUNCTION

     LEBEDEV GRID-BASED DFT OPTIONS
     ------------------------------
     DFTTYP=B3LYP   
     NRAD  =      96     NLEB  =     302
     NRAD0 =      24     NLEB0 =     110
     SWOFF =    5.00E-03 (PURE SCF -> DFT)
     SWITCH=    3.00E-04 (COARSE -> TIGHT GRID)
     THRESH=    0.00E+00 GTHRE=    1.00E+00

 GRIMME'S EMPIRICAL DISPERSION CORRECTION= F

     $CONTRL OPTIONS
     ---------------
 SCFTYP=UHF          RUNTYP=LMOEDA       EXETYP=RUN     
 MPLEVL=       0     CITYP =NONE         CCTYP =NONE         VBTYP =NONE    
 DFTTYP=B3LYP        TDDFT =NONE    
 MULT  =       1     ICHARG=       0     NZVAR =       0     COORD =UNIQUE  
 PP    =NONE         RELWFN=NONE         LOCAL =NONE         NUMGRD=       F
 ISPHER=       1     NOSYM =       0     MAXIT =      30     UNITS =ANGS    
 PLTORB=       F     MOLPLT=       F     AIMPAC=       F     FRIEND=        
 NPRINT=       7     IREST =       0     GEOM  =INPUT   
 NORMF =       0     NORMP =       0     ITOL  =      20     ICUT  =       9
 INTTYP=BEST         GRDTYP=BEST         QMTTOL= 1.0E-06

     $SYSTEM OPTIONS
     ---------------
  REPLICATED MEMORY=   150000000 WORDS (ON EVERY NODE).
 DISTRIBUTED MEMDDI=         150 MILLION WORDS IN AGGREGATE,
 MEMDDI DISTRIBUTED OVER  16 PROCESSORS IS     9375000 WORDS/PROCESSOR.
 TOTAL MEMORY REQUESTED ON EACH PROCESSOR=   159375000 WORDS.
 TIMLIM=      525600.00 MINUTES, OR     365.0 DAYS.
 PARALL= T  BALTYP=  DLB     KDIAG=    0  COREFL= F
 MXSEQ2=     300 MXSEQ3=     150  mem10=         0  mem22=         0

 Using Gaussians for PCM contribution to MEP, params: 0.10000E+01 0.10000E-07

          ----------------
          PROPERTIES INPUT
          ----------------

     MOMENTS            FIELD           POTENTIAL          DENSITY
 IEMOM =       1   IEFLD =       0   IEPOT =       0   IEDEN =       0
 WHERE =COMASS     WHERE =NUCLEI     WHERE =NUCLEI     WHERE =NUCLEI  
 OUTPUT=BOTH       OUTPUT=BOTH       OUTPUT=BOTH       OUTPUT=BOTH    
 IEMINT=       0   IEFINT=       0                     IEDINT=       0
                                                       MORB  =       0
          EXTRAPOLATION IN EFFECT
          DIIS IN EFFECT
          DIIS or SOSCF will be reset if energy rises
 ORBITAL PRINTING OPTION: NPREO=     1   154     2     1

     -------------------------------
     INTEGRAL TRANSFORMATION OPTIONS
     -------------------------------
     NWORD  =            0
     CUTOFF = 1.0E-09     MPTRAN =       0
     DIRTRF =       F     AOINTS =DUP     

          -----------------------------
          LOCALIZATION INPUT PARAMETERS
          -----------------------------
           LOCAL=RUEDNBRG      NOUTA=       0
          PRTLOC=       F      NOUTB=       0
          MAXLOC=     250     CVGLOC=1.00E-06
           FCORE=       F     SYMLOC=       F
          MOIDON=       F     EDCOMP=       F
          DIPDCM=       F      NPROT=       0
          QADDCM=       F     DEPRNT=       F
          POLNUM=       F     ORIENT=       F
          POLDYN=       F      VMTOL=1.50E-01
          NPRDTL=       2     IBOYAL=       1

          ----------------------
          INTEGRAL INPUT OPTIONS
          ----------------------
 NOPK  =       1 NORDER=       0 SCHWRZ=       T

     ------------------------------------------
     THE POINT GROUP IS C1 , NAXIS= 0, ORDER= 1
     ------------------------------------------

 -- VARIATIONAL SPACE WILL BE RESTRICTED TO PURE SPHERICAL HARMONICS ONLY --
 AFTER EXCLUDING CONTAMINANT COMBINATIONS FROM THE CARTESIAN GAUSSIAN BASIS
 SET, THE NUMBER OF SPHERICAL HARMONICS KEPT IN THE VARIATION SPACE IS  146

     DIMENSIONS OF THE SYMMETRY SUBSPACES ARE
 A   =  146

 ..... DONE SETTING UP THE RUN .....
 CPU     0: STEP CPU TIME=     0.02 TOTAL CPU TIME=          0.0 (      0.0 MIN)
 TOTAL WALL CLOCK TIME=          0.0 SECONDS, CPU UTILIZATION IS    72.65%

          --------------
          GKSEDA OPTIONS
          --------------
          NMOL  =       2          EDATYP=GKS     
          SUPBAS=       T          RDVECM=       F          ITRTN =       T

 *******************
 GKSEDA IS BEGINNING
 *******************

 NMOL =  2

 MONOMER     ATOM   CHARGE ELECTRON MULTIPLE
 -------------------------------------------
       1        5        0       15        2
       2        5        0       15       -2
 -------------------------------------------

 SAVING MOL INFO REQUIRES    598670 WORDS OF MEMORY.

          ********************
          1 ELECTRON INTEGRALS
          ********************
 ...... END OF ONE-ELECTRON INTEGRALS ......
 CPU     0: STEP CPU TIME=     0.01 TOTAL CPU TIME=          0.0 (      0.0 MIN)
 TOTAL WALL CLOCK TIME=          0.0 SECONDS, CPU UTILIZATION IS    76.16%

          -------------
          GUESS OPTIONS
          -------------
          GUESS =HUCKEL            NORB  =       0          NORDER=       0
          MIX   =       F          PRTMO =       F          PUNMO =       F
          TOLZ  = 1.0E-08          TOLE  = 1.0E-05
          SYMDEN=       F          PURIFY=       F

 INITIAL GUESS ORBITALS GENERATED BY HUCKEL   ROUTINE.
 HUCKEL GUESS REQUIRES    180842 WORDS.

 STATISTICS FOR GENERATION OF SYMMETRY ORBITAL -Q- MATRIX
 NUMBER OF CARTESIAN ATOMIC ORBITALS=        154
 NUMBER OF SPHERICAL CONTAMINANTS DROPPED=     8
 NUMBER OF LINEARLY DEPENDENT MOS DROPPED=     0
 TOTAL NUMBER OF MOS IN VARIATION SPACE=     146

 SYMMETRIES FOR INITIAL GUESS ORBITALS FOLLOW.  ALPHA SET(S).
    15 ORBITALS ARE OCCUPIED (    4 CORE ORBITALS).
     5=A        6=A        7=A        8=A        9=A       10=A       11=A   
    12=A       13=A       14=A       15=A       16=A       17=A       18=A   
    19=A       20=A       21=A       22=A       23=A       24=A       25=A   

 SYMMETRIES FOR INITIAL GUESS ORBITALS FOLLOW.   BETA SET(S).
    15 ORBITALS ARE OCCUPIED (    4 CORE ORBITALS).
     5=A        6=A        7=A        8=A        9=A       10=A       11=A   
    12=A       13=A       14=A       15=A       16=A       17=A       18=A   
    19=A       20=A       21=A       22=A       23=A       24=A       25=A   
 ...... END OF INITIAL ORBITAL SELECTION ......
 CPU     0: STEP CPU TIME=     0.01 TOTAL CPU TIME=          0.0 (      0.0 MIN)
 TOTAL WALL CLOCK TIME=          0.1 SECONDS, CPU UTILIZATION IS    82.49%

          -------------------------
          MONOMER  1 WITH OWN BASIS
          -------------------------

     ------------------------------------------
     THE POINT GROUP IS C1 , NAXIS= 0, ORDER= 1
     ------------------------------------------

 -- VARIATIONAL SPACE WILL BE RESTRICTED TO PURE SPHERICAL HARMONICS ONLY --
 AFTER EXCLUDING CONTAMINANT COMBINATIONS FROM THE CARTESIAN GAUSSIAN BASIS
 SET, THE NUMBER OF SPHERICAL HARMONICS KEPT IN THE VARIATION SPACE IS   73

     DIMENSIONS OF THE SYMMETRY SUBSPACES ARE
 A   =   73

          ********************
          1 ELECTRON INTEGRALS
          ********************
 ...... END OF ONE-ELECTRON INTEGRALS ......
 CPU     0: STEP CPU TIME=     0.01 TOTAL CPU TIME=          0.0 (      0.0 MIN)
 TOTAL WALL CLOCK TIME=          0.1 SECONDS, CPU UTILIZATION IS    79.86%

          -------------
          GUESS OPTIONS
          -------------
          GUESS =HUCKEL            NORB  =       0          NORDER=       0
          MIX   =       F          PRTMO =       F          PUNMO =       F
          TOLZ  = 1.0E-08          TOLE  = 1.0E-05
          SYMDEN=       F          PURIFY=       F

 INITIAL GUESS ORBITALS GENERATED BY HUCKEL   ROUTINE.
 HUCKEL GUESS REQUIRES     47410 WORDS.

 STATISTICS FOR GENERATION OF SYMMETRY ORBITAL -Q- MATRIX
 NUMBER OF CARTESIAN ATOMIC ORBITALS=         77
 NUMBER OF SPHERICAL CONTAMINANTS DROPPED=     4
 NUMBER OF LINEARLY DEPENDENT MOS DROPPED=     0
 TOTAL NUMBER OF MOS IN VARIATION SPACE=      73

 SYMMETRIES FOR INITIAL GUESS ORBITALS FOLLOW.  ALPHA SET(S).
     8 ORBITALS ARE OCCUPIED (    2 CORE ORBITALS).
     3=A        4=A        5=A        6=A        7=A        8=A        9=A   
    10=A       11=A       12=A       13=A       14=A       15=A       16=A   
    17=A       18=A   

 SYMMETRIES FOR INITIAL GUESS ORBITALS FOLLOW.   BETA SET(S).
     7 ORBITALS ARE OCCUPIED (    2 CORE ORBITALS).
     3=A        4=A        5=A        6=A        7=A        8=A        9=A   
    10=A       11=A       12=A       13=A       14=A       15=A       16=A   
    17=A   
 ...... END OF INITIAL ORBITAL SELECTION ......
 CPU     0: STEP CPU TIME=     0.00 TOTAL CPU TIME=          0.1 (      0.0 MIN)
 TOTAL WALL CLOCK TIME=          0.1 SECONDS, CPU UTILIZATION IS    80.84%

                    ----------------------
                    AO INTEGRAL TECHNOLOGY
                    ----------------------
     S,P,L SHELL ROTATED AXIS INTEGRALS, REPROGRAMMED BY
        KAZUYA ISHIMURA (IMS) AND JOSE SIERRA (SYNSTAR).
     S,P,D,L SHELL ROTATED AXIS INTEGRALS PROGRAMMED BY
        KAZUYA ISHIMURA (INSTITUTE FOR MOLECULAR SCIENCE).
     S,P,D,F,G SHELL TO TOTAL QUARTET ANGULAR MOMENTUM SUM 5,
        ERIC PROGRAM BY GRAHAM FLETCHER (ELORET AND NASA ADVANCED
        SUPERCOMPUTING DIVISION, AMES RESEARCH CENTER).
     S,P,D,F,G,L SHELL GENERAL RYS QUADRATURE PROGRAMMED BY
        MICHEL DUPUIS (PACIFIC NORTHWEST NATIONAL LABORATORY).

          --------------------
          2 ELECTRON INTEGRALS
          --------------------

 THE -PK- OPTION IS OFF, THE INTEGRALS ARE NOT IN SUPERMATRIX FORM.
 STORING   15000 INTEGRALS/RECORD ON DISK, USING 12 BYTES/INTEGRAL.
 TWO ELECTRON INTEGRAL EVALUATION REQUIRES   90957 WORDS OF MEMORY.
 SCHWARZ INEQUALITY OVERHEAD:      3003 INTEGRALS, T=        0.00
 II,JST,KST,LST =  1  1  1  1 NREC =         1 INTLOC =    1
 II,JST,KST,LST =  2  1  1  1 NREC =         1 INTLOC =    1
 II,JST,KST,LST =  3  1  1  1 NREC =         1 INTLOC =    1
 II,JST,KST,LST =  4  1  1  1 NREC =         1 INTLOC =    1
 II,JST,KST,LST =  5  1  1  1 NREC =         1 INTLOC =    1
 II,JST,KST,LST =  6  1  1  1 NREC =         1 INTLOC =    1
 II,JST,KST,LST =  7  1  1  1 NREC =         1 INTLOC =    4
 II,JST,KST,LST =  8  1  1  1 NREC =         1 INTLOC =   49
 II,JST,KST,LST =  9  1  1  1 NREC =         1 INTLOC =  589
 II,JST,KST,LST = 10  1  1  1 NREC =         1 INTLOC =  589
 II,JST,KST,LST = 11  1  1  1 NREC =         1 INTLOC =  589
 II,JST,KST,LST = 12  1  1  1 NREC =         1 INTLOC = 1015
 II,JST,KST,LST = 13  1  1  1 NREC =         1 INTLOC = 1337
 II,JST,KST,LST = 14  1  1  1 NREC =         1 INTLOC = 4879
 II,JST,KST,LST = 15  1  1  1 NREC =         1 INTLOC = 4879
 II,JST,KST,LST = 16  1  1  1 NREC =         1 INTLOC = 6967
 II,JST,KST,LST = 17  1  1  1 NREC =         1 INTLOC = 8103
 II,JST,KST,LST = 18  1  1  1 NREC =         1 INTLOC =11862
 II,JST,KST,LST = 19  1  1  1 NREC =         3 INTLOC =  750
 II,JST,KST,LST = 20  1  1  1 NREC =         3 INTLOC =  750
 II,JST,KST,LST = 21  1  1  1 NREC =         3 INTLOC =  750
 II,JST,KST,LST = 22  1  1  1 NREC =         4 INTLOC = 7152
 II,JST,KST,LST = 23  1  1  1 NREC =         4 INTLOC = 7152
 II,JST,KST,LST = 24  1  1  1 NREC =         7 INTLOC = 4108
 II,JST,KST,LST = 25  1  1  1 NREC =         7 INTLOC = 4108
 II,JST,KST,LST = 26  1  1  1 NREC =         7 INTLOC = 9864
 II,JST,KST,LST = 27  1  1  1 NREC =         8 INTLOC = 9537
 II,JST,KST,LST = 28  1  1  1 NREC =        10 INTLOC = 1944
 II,JST,KST,LST = 29  1  1  1 NREC =        10 INTLOC =14034
 II,JST,KST,LST = 30  1  1  1 NREC =        11 INTLOC =10147
 II,JST,KST,LST = 31  1  1  1 NREC =        12 INTLOC = 5521
 II,JST,KST,LST = 32  1  1  1 NREC =        15 INTLOC = 8676
 II,JST,KST,LST = 33  1  1  1 NREC =        15 INTLOC =14227
 SCHWARZ INEQUALITY TEST SKIPPED           0 INTEGRAL BLOCKS.
 TOTAL NUMBER OF NONZERO TWO-ELECTRON INTEGRALS =             3899643
        267 INTEGRAL RECORDS WERE STORED ON DISK FILE  8.
  ...... END OF TWO-ELECTRON INTEGRALS .....
 CPU     0: STEP CPU TIME=     0.03 TOTAL CPU TIME=          0.1 (      0.0 MIN)
 TOTAL WALL CLOCK TIME=          0.1 SECONDS, CPU UTILIZATION IS    83.49%

          ---------------------------
              U-B3LYP SCF CALCULATION
          ---------------------------

     NUCLEAR ENERGY =        27.8972811690
     MAXIT = 30     NPUNCH=  2     MULT=  2
     EXTRAP=T  DAMP=F  SHIFT=F  RSTRCT=F  DIIS=T  SOSCF=T
         DENSITY MATRIX CONVERGENCE THRESHOLD=  1.00E-05
     COARSE -> FINE DFT GRID SWITCH THRESHOLD=  3.00E-04 (SWITCH IN $DFT)
                   HF -> DFT SWITCH THRESHOLD=  5.00E-03 (SWOFF IN $DFT)
     SOSCF WILL OPTIMIZE     520 ALPHA AND     462 BETA ROTATION ANGLES.
     SOGTOL= 2.500E-01
     MEMORY REQUIRED FOR UHF/ROHF ITERS=    298732 WORDS.

     EXCHANGE FUNCTIONAL   =B88&HFX   
     CORRELATION FUNCTIONAL=LYP88&VWN5
     DFT THRESHOLD         =.690E-08
     GRID CHANGE THRESHOLD =.300E-03
 FOR AN EULER-MACLAURIN QUADRATURE USING  96 RADIAL POINTS:
 SMALLEST GAUSSIAN PRIMITIVE EXPONENT=        0.0297400000 OF TYPE -S-
 ON ATOM NUMBER   3 HAS RADIAL NORMALIZATION=  1.000000
  LARGEST GAUSSIAN PRIMITIVE EXPONENT=     6665.0000000000 OF TYPE -S-
 ON ATOM NUMBER   1 HAS RADIAL NORMALIZATION=  1.000000
 DFT IS SWITCHED OFF, PERFORMING PURE SCF UNTIL SWOFF THRESHOLD IS REACHED.

 ITER EX      TOTAL ENERGY        E CHANGE  DENSITY CHANGE    DIIS ERROR
          * * *   INITIATING DIIS PROCEDURE   * * *
   1  0      -77.1747510220   -77.1747510220   0.501676839   0.357498904
   2  1      -77.3688955702    -0.1941445482   0.155513981   0.054156763
   3  2      -77.3849436637    -0.0160480935   0.031235407   0.025903755
   4  3      -77.3893381870    -0.0043945233   0.022022133   0.011201431
   5  4      -77.3907190783    -0.0013808913   0.012869816   0.008512599
   6  5      -77.3913613136    -0.0006422353   0.024722454   0.008495534
   7  6      -77.3924315908    -0.0010702772   0.065955183   0.008218142
   8  7      -77.3948177037    -0.0023861129   0.103795880   0.006219439
   9  8      -77.3962616479    -0.0014439441   0.058304869   0.001654393
  10  9      -77.3959112975     0.0003503504   0.038934705   0.003696753
  11 10      -77.3963101293    -0.0003988319   0.004136021   0.000528689
 CONVERGED TO SWOFF, SO DFT CALCULATION IS NOW SWITCHED ON.
          * * *   INITIATING DIIS PROCEDURE   * * *
  12 11      -77.8305555887    -0.4342454594   0.393854700   0.062458999
  13 12      -77.8469509453    -0.0163953566   0.061960445   0.016538783
  14 13      -77.8495658140    -0.0026148686   0.024616896   0.012014508
  15 14      -77.8510049373    -0.0014391234   0.049797822   0.007284608
  16 15      -77.8519605131    -0.0009555758   0.008975287   0.003170293
  17 16      -77.8520345432    -0.0000740301   0.005717205   0.001459526
  18 17      -77.8520539827    -0.0000194395   0.001966029   0.000282558
         SWDIIS THRESHOLD HAS BEEN REACHED: SWITCHING DIIS OFF.
          ---------------START SECOND ORDER SCF---------------
  19 18      -77.8520551023    -0.0000011197   0.000135929   0.000022343
  20 19      -77.8520551142    -0.0000000119   0.000154482   0.000023096
  21 20      -77.8520551150    -0.0000000008   0.000065656   0.000020490
  22 21      -77.8520551190    -0.0000000040   0.000008379   0.000002254
  23 22      -77.8520551191    -0.0000000001   0.000012491   0.000001821

          ----------------
          ENERGY CONVERGED
          ----------------
     TIME TO FORM FOCK OPERATORS=       1.2 SECONDS (       0.1 SEC/ITER)
     TIME TO SOLVE SCF EQUATIONS=       0.1 SECONDS (       0.0 SEC/ITER)

 FINAL U-B3LYP ENERGY IS      -77.8520551191 AFTER  23 ITERATIONS
 DFT EXCHANGE + CORRELATION ENERGY =        -9.5256299205
 TOTAL ELECTRON NUMBER             =        14.9999850717

          --------------------
          SPIN SZ   =    0.500
          S-SQUARED =    0.764
          --------------------

  ----- ALPHA SET ----- 

          ------------
          EIGENVECTORS
          ------------

                      1          2          3          4          5
                  -10.2288   -10.2016    -0.7675    -0.5778    -0.4646
                     A          A          A          A          A   
    1  C  1  S    0.012361   1.009653  -0.019743   0.011344  -0.002212
    2  C  1  S   -0.001524   0.022173   0.316376  -0.226944   0.000925
    3  C  1  S    0.040468  -0.073455   0.095175  -0.325257  -0.033025
    4  C  1  X   -0.000001   0.000021   0.000120  -0.002240  -0.008375
    5  C  1  Y   -0.000024  -0.000008   0.007845   0.031766   0.340926
    6  C  1  Z   -0.001013  -0.000337   0.111277   0.207514  -0.209727
    7  C  1  X    0.000055  -0.000040  -0.000940  -0.000502  -0.000223
    8  C  1  Y   -0.001366  -0.000292   0.024045   0.027127  -0.015947
    9  C  1  Z    0.038757  -0.009025  -0.030022  -0.242364   0.040584
   10  C  1 XX    0.000218  -0.001629  -0.006283   0.001476  -0.001741
   11  C  1 YY    0.000858   0.000831  -0.007622  -0.011316   0.008569
   12  C  1 ZZ   -0.001076   0.000798   0.013905   0.009840  -0.006828
   13  C  1 XY   -0.000016  -0.000069   0.000028   0.000379  -0.000124
   14  C  1 XZ   -0.000017  -0.000011   0.000033  -0.000142  -0.000004
   15  C  1 YZ    0.000474   0.000056   0.000201   0.002321  -0.005978
   16  C  1  S    0.015348  -0.033994   0.016561   0.138818  -0.060686
   17  C  1  X   -0.000036  -0.000039   0.000110  -0.000298   0.001333
   18  C  1  Y    0.000763   0.000820  -0.003695   0.008769  -0.058659
   19  C  1  Z    0.006236  -0.003701  -0.001972   0.011934  -0.009022
   20  C  1 XX   -0.002134   0.004873   0.006401  -0.007172  -0.006383
   21  C  1 YY   -0.004467   0.001511  -0.007970   0.105873  -0.045028
   22  C  1 ZZ    0.006601  -0.006384   0.001569  -0.098701   0.051411
   23  C  1 XY    0.000075   0.000101   0.000131  -0.003586   0.000164
   24  C  1 XZ    0.000117   0.000062  -0.000730  -0.000243  -0.002578
   25  C  1 YZ   -0.003135  -0.001089   0.024657   0.019919   0.104724
   26  C  2  S    1.009990  -0.013953  -0.017223  -0.006469  -0.000308
   27  C  2  S    0.022744  -0.001384   0.307148   0.268708  -0.070504
   28  C  2  S   -0.090123   0.024677   0.253923   0.494383  -0.242347
   29  C  2  X   -0.000055  -0.000003  -0.001349  -0.005087  -0.008449
   30  C  2  Y    0.000896   0.000104   0.024326   0.097648   0.255550
   31  C  2  Z   -0.000229   0.000922  -0.128851   0.119075   0.163366
   32  C  2  X    0.000172   0.000043   0.002310   0.002940   0.000094
   33  C  2  Y   -0.003181  -0.001126  -0.057609  -0.093220   0.008591
   34  C  2  Z    0.030857  -0.016923  -0.091683  -0.220471   0.063482
   35  C  2 XX   -0.000855   0.000676  -0.011458  -0.001400  -0.000465
   36  C  2 YY    0.000514   0.000641  -0.003948   0.009818   0.005723
   37  C  2 ZZ    0.000342  -0.001316   0.015406  -0.008418  -0.005257
   38  C  2 XY   -0.000062  -0.000002  -0.000148  -0.000441  -0.000440
   39  C  2 XZ   -0.000044  -0.000004   0.000181  -0.000021   0.000095
   40  C  2 YZ    0.000886   0.000042  -0.006163  -0.001663  -0.009724
   41  C  2  S   -0.029131   0.019846  -0.018935  -0.118816   0.022730
   42  C  2  X    0.000060   0.000059   0.000092   0.001139  -0.000344
   43  C  2  Y   -0.001401  -0.001335  -0.000301  -0.026718   0.018151
   44  C  2  Z    0.004262  -0.005769   0.006666   0.005053  -0.013392
   45  C  2 XX    0.006000  -0.001054  -0.006844   0.006261   0.001142
   46  C  2 YY    0.004307  -0.001755  -0.017722  -0.059690  -0.008193
   47  C  2 ZZ   -0.010307   0.002809   0.024566   0.053429   0.007052
   48  C  2 XY    0.000073   0.000026   0.000947   0.002878   0.001050
   49  C  2 XZ    0.000183   0.000054  -0.000221   0.001034  -0.000086
   50  C  2 YZ   -0.004260  -0.001169   0.008670  -0.021938   0.013238
   51  H  3  S   -0.000655  -0.000101   0.123889   0.258670   0.194294
   52  H  3  S    0.021317   0.007212   0.065007   0.272045   0.108127
   53  H  3  X   -0.000076   0.000004   0.000558   0.000825   0.000405
   54  H  3  Y    0.001714  -0.000008  -0.012740  -0.016818  -0.005889
   55  H  3  Z    0.000733   0.000181  -0.011289  -0.009978  -0.005271
   56  H  3  S    0.001284   0.001933   0.003518   0.025772   0.010388
   57  H  3  X    0.000350   0.000104   0.000191   0.002522   0.000114
   58  H  3  Y   -0.007686  -0.002227  -0.007784  -0.042242  -0.011821
   59  H  3  Z   -0.002007  -0.000910  -0.017515  -0.029517  -0.010656
   60  H  4  S   -0.000345  -0.000856   0.116537  -0.229671  -0.140571
   61  H  4  S    0.017775   0.021893  -0.010952  -0.219002  -0.197364
   62  H  4  X    0.000008   0.000047  -0.000408   0.000433   0.000006
   63  H  4  Y   -0.000209  -0.001550   0.014365  -0.016893   0.000639
   64  H  4  Z   -0.000612  -0.001020   0.012570  -0.005413  -0.009990
   65  H  4  S    0.001781   0.002002   0.000023  -0.012950  -0.041573
   66  H  4  X   -0.000137  -0.000190   0.000180   0.000730   0.001139
   67  H  4  Y    0.004842   0.006784  -0.009287  -0.020772  -0.049345
   68  H  4  Z    0.002444   0.003025   0.008722  -0.034211   0.011406
   69  H  5  S   -0.000192  -0.000909   0.126316  -0.202760   0.341027
   70  H  5  S    0.009352   0.018973   0.014712  -0.224591   0.435046
   71  H  5  X    0.000001  -0.000028   0.000274  -0.000314   0.000105
   72  H  5  Y   -0.000078   0.001517  -0.014526   0.016635  -0.010244
   73  H  5  Z   -0.000418  -0.000940   0.011308  -0.004891   0.005070
   74  H  5  S    0.001711   0.001133   0.002232  -0.013563   0.045378
   75  H  5  X    0.000041   0.000113   0.000133   0.000353   0.001470
   76  H  5  Y   -0.002379  -0.006007   0.000580   0.020019  -0.072592
   77  H  5  Z    0.001976   0.002950  -0.002006  -0.053554   0.040809

                      6          7          8          9         10
                   -0.4139    -0.2854    -0.2730    -0.0192    -0.0019
                     A          A          A          A          A   
    1  C  1  S    0.000034   0.000004   0.000579   0.000081  -0.003004
    2  C  1  S   -0.036534  -0.004535   0.050291  -0.000279   0.084417
    3  C  1  S   -0.170423  -0.003931   0.022275  -0.000727   0.344067
    4  C  1  X    0.005322   0.391455   0.027367   0.403058  -0.000476
    5  C  1  Y   -0.254906   0.016993  -0.134166   0.009093   0.029810
    6  C  1  Z   -0.319844  -0.007754   0.112796   0.002068  -0.096265
    7  C  1  X   -0.002501   0.215564   0.012921   0.338587   0.000020
    8  C  1  Y    0.060870   0.002773   0.032665   0.008708   0.042479
    9  C  1  Z   -0.091700   0.001872  -0.021994   0.001448  -0.284063
   10  C  1 XX   -0.001157   0.000038   0.000523   0.000046   0.000941
   11  C  1 YY    0.010583   0.000056  -0.000725   0.000039  -0.002787
   12  C  1 ZZ   -0.009426  -0.000094   0.000202  -0.000086   0.001846
   13  C  1 XY   -0.000498   0.000639  -0.000092   0.000054   0.000133
   14  C  1 XZ   -0.000663   0.021738   0.000262  -0.030128  -0.000077
   15  C  1 YZ    0.013694  -0.001519   0.040543  -0.001259   0.001447
   16  C  1  S   -0.038894  -0.012211   0.158157  -0.002121   1.298645
   17  C  1  X   -0.001384   0.028658   0.001534   0.566999   0.003235
   18  C  1  Y    0.051558  -0.000258   0.019976   0.012475   0.037671
   19  C  1  Z   -0.014842  -0.002998   0.040282   0.000797  -0.297706
   20  C  1 XX    0.000011   0.000195  -0.005644   0.000006  -0.039359
   21  C  1 YY   -0.043975  -0.002106   0.029370  -0.000095   0.024799
   22  C  1 ZZ    0.043964   0.001910  -0.023726   0.000088   0.014561
   23  C  1 XY    0.001121   0.004579  -0.000532  -0.003286  -0.001683
   24  C  1 XZ    0.001022   0.003675   0.001073  -0.042054  -0.001378
   25  C  1 YZ   -0.052050   0.001801  -0.035023   0.000064   0.027075
   26  C  2  S   -0.000873  -0.000015  -0.000756   0.000080  -0.002551
   27  C  2  S    0.031527   0.011151  -0.151012  -0.001546   0.056078
   28  C  2  S   -0.053784   0.021656  -0.311164  -0.004234   0.367234
   29  C  2  X   -0.005033   0.442422   0.013075  -0.411355  -0.001998
   30  C  2  Y    0.034777  -0.013414   0.473791  -0.015401   0.043871
   31  C  2  Z    0.374771   0.019038  -0.255871  -0.002826   0.082672
   32  C  2  X    0.002140   0.255674   0.009961  -0.348660  -0.004642
   33  C  2  Y   -0.066445  -0.004476   0.242083  -0.014840   0.098532
   34  C  2  Z    0.044590   0.015352  -0.222640  -0.001806  -0.007895
   35  C  2 XX   -0.001593   0.000095  -0.004774   0.000107  -0.001696
   36  C  2 YY    0.011050   0.000169   0.000018   0.000000  -0.004883
   37  C  2 ZZ   -0.009457  -0.000264   0.004755  -0.000107   0.006579
   38  C  2 XY   -0.000612  -0.000516  -0.000597  -0.000071   0.000120
   39  C  2 XZ   -0.000645  -0.020409  -0.001812  -0.032168   0.000058
   40  C  2 YZ    0.017754  -0.001666   0.020354  -0.000542  -0.003646
   41  C  2  S   -0.013947   0.018341  -0.262041  -0.003982   0.870726
   42  C  2  X    0.001378   0.031259   0.001549  -0.518663  -0.010008
   43  C  2  Y   -0.035980  -0.000143   0.023952  -0.015899   0.190614
   44  C  2  Z   -0.015355  -0.000980   0.007361  -0.002122   0.148179
   45  C  2 XX   -0.004148  -0.000591   0.006985  -0.000404  -0.039493
   46  C  2 YY   -0.036977   0.001589  -0.023096   0.000306  -0.012739
   47  C  2 ZZ    0.041126  -0.000998   0.016112   0.000098   0.052232
   48  C  2 XY    0.002021  -0.001411   0.000892   0.008362  -0.001605
   49  C  2 XZ    0.000493  -0.007185  -0.000010  -0.037725  -0.001499
   50  C  2 YZ   -0.017225   0.000284  -0.011956   0.000009   0.033182
   51  H  3  S    0.233067  -0.011633   0.195888   0.004111   0.005105
   52  H  3  S    0.278106  -0.015282   0.250008   0.004487  -0.357814
   53  H  3  X    0.000353   0.015642   0.000957  -0.020933   0.000459
   54  H  3  Y   -0.009273   0.000241   0.006810  -0.000757  -0.010691
   55  H  3  Z    0.001061   0.001156  -0.015916  -0.000119  -0.001553
   56  H  3  S    0.036836  -0.001193   0.027581   0.002865  -0.898908
   57  H  3  X    0.001695   0.015287   0.002418  -0.053619  -0.001510
   58  H  3  Y   -0.038757   0.001760  -0.017845  -0.000947   0.031407
   59  H  3  Z   -0.036379   0.002255  -0.029220   0.000009   0.032814
   60  H  4  S    0.324745  -0.006813   0.146114  -0.000740   0.006982
   61  H  4  S    0.391440  -0.008738   0.193808  -0.002361  -0.404806
   62  H  4  X   -0.000360   0.014399   0.000912   0.021818  -0.000251
   63  H  4  Y    0.009596   0.000439  -0.000837   0.000589   0.009643
   64  H  4  Z    0.003160  -0.000293   0.005138   0.000191   0.002046
   65  H  4  S    0.035945  -0.001821   0.039900  -0.006272  -0.637343
   66  H  4  X   -0.001807   0.015711   0.000152   0.045424   0.001604
   67  H  4  Y    0.054976  -0.001542   0.035550   0.000972  -0.063712
   68  H  4  Z    0.052501   0.000008   0.003371   0.000941  -0.017177
   69  H  5  S   -0.073000   0.012316  -0.210294   0.002790   0.003761
   70  H  5  S   -0.184164   0.019875  -0.338016   0.003992  -0.419450
   71  H  5  X    0.000083   0.014331   0.000944   0.022650   0.000261
   72  H  5  Y   -0.003123   0.000269  -0.000055   0.000537  -0.012246
   73  H  5  Z   -0.010900   0.000024   0.000289   0.000006   0.003412
   74  H  5  S   -0.043327   0.001658  -0.041746   0.004252  -1.138367
   75  H  5  X   -0.000700   0.012812   0.000246   0.052825  -0.000795
   76  H  5  Y    0.051150  -0.002169   0.043240   0.001690   0.036225
   77  H  5  Z   -0.005919   0.001881  -0.023070  -0.000663  -0.024619

                     11         12         13         14         15
                    0.0149     0.0250     0.0627     0.0712     0.0791
                     A          A          A          A          A   
    1  C  1  S   -0.001246   0.002393   0.000725   0.007705   0.002902
    2  C  1  S    0.067515  -0.017287  -0.000968  -0.012093   0.044010
    3  C  1  S    0.183001  -0.128521  -0.038036  -0.391014   0.153768
    4  C  1  X    0.001682   0.001867   0.172281  -0.011309   0.000585
    5  C  1  Y   -0.067712  -0.118348   0.005827   0.036798   0.011849
    6  C  1  Z   -0.036509   0.005229   0.000738   0.014021   0.054261
    7  C  1  X    0.004860   0.006712   0.199464  -0.016160  -0.001316
    8  C  1  Y   -0.172202  -0.370801   0.009014   0.101633   0.010699
    9  C  1  Z   -0.275159   0.106237   0.001326   0.033025  -0.047192
   10  C  1 XX    0.002805  -0.003182  -0.000302  -0.007376  -0.006804
   11  C  1 YY    0.004861  -0.001746   0.000075   0.001075  -0.010956
   12  C  1 ZZ   -0.007666   0.004929   0.000226   0.006301   0.017761
   13  C  1 XY   -0.000103  -0.000017  -0.000874  -0.000205   0.000095
   14  C  1 XZ    0.000294   0.000095   0.006150   0.000082  -0.000106
   15  C  1 YZ   -0.004831  -0.003843  -0.000467  -0.010582   0.003088
   16  C  1  S    0.424300  -1.754325  -0.799516 -10.873449   1.492235
   17  C  1  X    0.001570   0.046173  -0.628186   0.037402   0.015713
   18  C  1  Y   -0.205652  -1.941834   0.044926   0.437365  -0.491463
   19  C  1  Z   -0.536338  -0.372843  -0.333354  -4.831124  -1.572765
   20  C  1 XX   -0.010816   0.016638   0.004030   0.081402   0.022866
   21  C  1 YY    0.022393  -0.051656  -0.009363  -0.154145   0.017044
   22  C  1 ZZ   -0.011577   0.035019   0.005333   0.072742  -0.039911
   23  C  1 XY   -0.001831   0.001596   0.024387   0.005707   0.000710
   24  C  1 XZ    0.000913  -0.002772   0.040948  -0.003981  -0.003665
   25  C  1 YZ   -0.043074   0.100225  -0.000324   0.004193   0.113892
   26  C  2  S   -0.001281  -0.000774  -0.000506  -0.005553   0.005524
   27  C  2  S   -0.072913   0.048108   0.002620   0.040719   0.030813
   28  C  2  S   -0.227514   0.245164   0.033057   0.431627   0.053153
   29  C  2  X    0.004522   0.001236   0.127955  -0.002865  -0.001517
   30  C  2  Y   -0.085206  -0.045874  -0.003574  -0.142393   0.061154
   31  C  2  Z   -0.028011   0.023562   0.000846   0.004878  -0.075503
   32  C  2  X    0.009168  -0.003946   0.145081  -0.015673   0.007436
   33  C  2  Y   -0.159187   0.093909   0.018369   0.116397  -0.142354
   34  C  2  Z   -0.251006   0.150762   0.000137   0.044553  -0.064380
   35  C  2 XX   -0.003389   0.001472  -0.000330   0.001422  -0.010015
   36  C  2 YY   -0.001755   0.002161   0.000435  -0.000561  -0.013491
   37  C  2 ZZ    0.005144  -0.003633  -0.000105  -0.000862   0.023507
   38  C  2 XY   -0.000171   0.000032   0.003902  -0.000129   0.000169
   39  C  2 XZ   -0.000237  -0.000100  -0.013427   0.000703   0.000168
   40  C  2 YZ    0.008238   0.007562  -0.000297   0.001958  -0.006723
   41  C  2  S   -0.482240   2.294379   0.805462  11.174297  -0.291829
   42  C  2  X    0.028456  -0.030722  -0.592534   0.035552  -0.007109
   43  C  2  Y   -0.553419   1.026869  -0.038554   0.314884  -0.061488
   44  C  2  Z   -0.627647  -0.232548  -0.312293  -4.196997   1.876749
   45  C  2 XX    0.007502  -0.041137  -0.002437  -0.076362   0.063299
   46  C  2 YY   -0.063231   0.033284   0.002106   0.084945  -0.027180
   47  C  2 ZZ    0.055729   0.007853   0.000331  -0.008583  -0.036118
   48  C  2 XY    0.003841  -0.003233  -0.039757  -0.005148   0.003198
   49  C  2 XZ    0.002829  -0.003525  -0.015369  -0.001793  -0.003582
   50  C  2 YZ   -0.072305   0.085610   0.002664   0.060273   0.082793
   51  H  3  S    0.016542   0.015148  -0.000577  -0.022699  -0.017830
   52  H  3  S    0.669877  -0.550336  -0.057467  -0.853240   0.215528
   53  H  3  X   -0.000443   0.000107  -0.005791  -0.000077   0.000345
   54  H  3  Y    0.010285   0.000125   0.000380   0.009791  -0.008477
   55  H  3  Z    0.008197  -0.000496   0.000109   0.005336   0.007028
   56  H  3  S    2.553484  -1.440703   0.237051   3.493582  -0.151538
   57  H  3  X    0.003867  -0.006663   0.038477  -0.010200   0.004202
   58  H  3  Y   -0.082735   0.133654   0.012505   0.137294  -0.085082
   59  H  3  Z   -0.021188   0.003809   0.011468   0.141062  -0.096647
   60  H  4  S   -0.009599   0.012742  -0.000987  -0.023358  -0.023818
   61  H  4  S   -0.448756  -0.451869   0.047965   0.592225  -0.345764
   62  H  4  X   -0.000283  -0.000169  -0.003541   0.000288  -0.000058
   63  H  4  Y    0.007614   0.002755   0.000081  -0.000145   0.003648
   64  H  4  Z    0.007176   0.002820  -0.000508  -0.010521  -0.011283
   65  H  4  S   -2.047420  -3.104976   0.021270   0.445126  -1.132380
   66  H  4  X    0.001026   0.001890   0.070245  -0.006380   0.001030
   67  H  4  Y   -0.060373  -0.052481   0.003980   0.032396  -0.011721
   68  H  4  Z   -0.008331  -0.052991   0.010168   0.145370   0.029114
   69  H  5  S    0.002915  -0.002467   0.001352   0.025609  -0.038579
   70  H  5  S   -0.158979   0.860980   0.032101   0.407406   0.095524
   71  H  5  X   -0.000018  -0.000048  -0.004209   0.000257   0.000145
   72  H  5  Y   -0.002472   0.004243  -0.000151  -0.001327  -0.006310
   73  H  5  Z    0.003230  -0.007300  -0.000229  -0.002361  -0.014283
   74  H  5  S   -0.484695   3.803926  -0.280929  -4.355496   0.584984
   75  H  5  X   -0.001119   0.000636   0.030935  -0.004584   0.001840
   76  H  5  Y    0.063730  -0.092260  -0.001353  -0.002900  -0.090870
   77  H  5  Z    0.051460   0.068111   0.009671   0.100672   0.038108

                     16         17         18         19         20
                    0.1117     0.1127     0.1167     0.1280     0.1458
                     A          A          A          A          A   
    1  C  1  S    0.005978   0.001076  -0.038743  -0.014838  -0.015019
    2  C  1  S   -0.058599  -0.001395  -0.205047  -0.018912  -0.120415
    3  C  1  S   -1.025026  -0.079915   0.307222   0.527312   0.538789
    4  C  1  X   -0.019356   0.236138   0.004066  -0.002404  -0.003451
    5  C  1  Y    0.114444   0.012985  -0.083838   0.237140   0.039428
    6  C  1  Z    0.002142  -0.000252   0.121803   0.000790   0.130783
    7  C  1  X   -0.001517   0.187403  -0.000240   0.026849  -0.004428
    8  C  1  Y   -0.428954  -0.022284   0.293357  -0.927495  -0.172296
    9  C  1  Z   -1.243311  -0.059149  -1.564467  -0.378418   1.552899
   10  C  1 XX    0.000924  -0.000369   0.019935   0.016656  -0.039496
   11  C  1 YY   -0.000304   0.000127   0.003811  -0.008196   0.048762
   12  C  1 ZZ   -0.000620   0.000242  -0.023746  -0.008460  -0.009265
   13  C  1 XY   -0.000222   0.001241   0.000381   0.001195  -0.002464
   14  C  1 XZ   -0.000421  -0.006978   0.000235  -0.000306   0.000729
   15  C  1 YZ    0.024426   0.001227  -0.007159   0.009122  -0.016631
   16  C  1  S   -5.763530  -0.465171   5.055819   5.311831   0.156009
   17  C  1  X    0.153780  -2.232974  -0.062052   0.135517   0.062702
   18  C  1  Y   -0.324601  -0.081251   1.842081  -6.054497  -2.462224
   19  C  1  Z   -3.617640  -0.225653  -1.953945   1.713735   0.561528
   20  C  1 XX    0.047886   0.006886  -0.160400  -0.036903  -0.096404
   21  C  1 YY    0.184311   0.003669   0.344097   0.199940  -0.661318
   22  C  1 ZZ   -0.232197  -0.010555  -0.183697  -0.163036   0.757721
   23  C  1 XY   -0.004102  -0.034166  -0.013199  -0.010258   0.015375
   24  C  1 XZ    0.005493  -0.057455  -0.003622  -0.008125  -0.012828
   25  C  1 YZ   -0.060990  -0.005479  -0.014422   0.332564   0.322716
   26  C  2  S    0.008696   0.001308  -0.035981  -0.026356   0.024587
   27  C  2  S    0.112933   0.008952  -0.112056  -0.099528   0.012930
   28  C  2  S    0.492933   0.003860   1.291884   0.781725  -2.195690
   29  C  2  X    0.007489  -0.241735  -0.002498  -0.001581   0.006095
   30  C  2  Y    0.181764   0.003318  -0.006535   0.001164  -0.092731
   31  C  2  Z    0.060672   0.003787  -0.084859  -0.008986  -0.067648
   32  C  2  X    0.035001  -0.226703  -0.008583  -0.020855   0.023783
   33  C  2  Y   -0.364784  -0.043534   0.131181   0.403616  -0.513185
   34  C  2  Z   -1.379986  -0.084777  -0.905944   0.129846   1.093182
   35  C  2 XX   -0.004780  -0.000119   0.005390   0.013595  -0.011912
   36  C  2 YY    0.005978   0.000024   0.002469  -0.007876   0.017817
   37  C  2 ZZ   -0.001198   0.000095  -0.007859  -0.005720  -0.005906
   38  C  2 XY   -0.000276  -0.005967  -0.000162   0.000937  -0.000779
   39  C  2 XZ    0.000699  -0.004143   0.000002   0.000362   0.000272
   40  C  2 YZ   -0.016228  -0.000902   0.004049  -0.017140   0.001534
   41  C  2  S    4.115603   0.216708   2.635001  -0.919709  -1.937018
   42  C  2  X   -0.021128   2.240169   0.049372  -0.111320  -0.026993
   43  C  2  Y   -2.797605  -0.131682  -0.778234   3.520282   0.703885
   44  C  2  Z   -4.219409  -0.281385  -0.159721   2.263519   1.080779
   45  C  2 XX    0.008504  -0.001278  -0.128138  -0.071330  -0.023822
   46  C  2 YY   -0.308862  -0.016201  -0.131580   0.041217   0.196066
   47  C  2 ZZ    0.300358   0.017479   0.259718   0.030113  -0.172244
   48  C  2 XY    0.012926   0.062974  -0.000893  -0.004086  -0.006056
   49  C  2 XZ    0.016489  -0.084818  -0.005506  -0.007025  -0.009127
   50  C  2 YZ   -0.248688  -0.020173   0.093752   0.145745   0.187478
   51  H  3  S   -0.022098   0.001473   0.010775  -0.087651   0.102900
   52  H  3  S    2.263222   0.186154  -0.521091  -1.795777   0.606932
   53  H  3  X    0.000881  -0.000568  -0.000494  -0.000574   0.000351
   54  H  3  Y   -0.019844  -0.001716   0.011330   0.011098  -0.008242
   55  H  3  Z   -0.012055  -0.001092  -0.001910   0.015167  -0.005218
   56  H  3  S    6.184475   0.434069   0.193946  -3.870141  -0.769558
   57  H  3  X    0.033115  -0.117527  -0.011884  -0.015644  -0.002335
   58  H  3  Y   -0.617121  -0.050979   0.242642   0.283261   0.215379
   59  H  3  Z   -0.388147  -0.029811   0.064654   0.162598  -0.140469
   60  H  4  S    0.028277   0.001816  -0.002453  -0.057955   0.098638
   61  H  4  S   -1.076207  -0.032633  -1.687686  -3.132871   0.712633
   62  H  4  X    0.000386  -0.000248   0.000288   0.000632   0.000485
   63  H  4  Y   -0.010936  -0.000527  -0.009561  -0.022715  -0.024135
   64  H  4  Z   -0.009066  -0.000445  -0.000996  -0.011056   0.005790
   65  H  4  S   -3.914057  -0.222997  -0.796283  -5.103566  -1.981988
   66  H  4  X    0.004529   0.090214   0.014617   0.014770   0.007495
   67  H  4  Y   -0.329888  -0.011738  -0.443105  -0.567473  -0.474630
   68  H  4  Z   -0.306851  -0.012008  -0.209350  -0.570040   0.399786
   69  H  5  S   -0.020468   0.000994  -0.017493  -0.022694   0.226060
   70  H  5  S   -0.024406   0.037964  -2.728272   1.097177   2.832525
   71  H  5  X    0.000109   0.001599  -0.000495   0.000441  -0.000418
   72  H  5  Y   -0.008273  -0.000847   0.026058  -0.016488   0.011362
   73  H  5  Z    0.000839   0.000208  -0.013610   0.014668  -0.000229
   74  H  5  S   -1.201144  -0.058557  -4.243021   6.564294   2.824199
   75  H  5  X   -0.006806   0.121858  -0.012425   0.014922  -0.010819
   76  H  5  Y   -0.011267  -0.003214   0.669548  -0.421389   0.137154
   77  H  5  Z    0.107148   0.012204  -0.419728   0.162797   0.435787

                     21         22         23         24         25
                    0.1685     0.1955     0.2193     0.2532     0.2859
                     A          A          A          A          A   
    1  C  1  S    0.049194   0.018693   0.000375  -0.005185  -0.009600
    2  C  1  S    0.158414   0.012070  -0.000362  -0.030251  -0.135505
    3  C  1  S   -2.140847  -0.555017   0.009617   0.750906   0.392975
    4  C  1  X   -0.000720  -0.002643   0.002298   0.003721   0.000328
    5  C  1  Y   -0.065846   0.124025  -0.012704  -0.200215   0.009635
    6  C  1  Z   -0.062451  -0.020042   0.000019   0.074956  -0.011397
    7  C  1  X   -0.004335  -0.027407  -0.070508   0.006295  -0.001203
    8  C  1  Y   -0.091753   0.604682  -0.030171  -0.221296   0.083598
    9  C  1  Z   -1.021684   1.223905   0.077506   0.752749   2.403412
   10  C  1 XX    0.014465  -0.024874  -0.002611  -0.015154  -0.023446
   11  C  1 YY   -0.005959   0.025785   0.002048   0.017371  -0.073781
   12  C  1 ZZ   -0.008506  -0.000911   0.000563  -0.002217   0.097227
   13  C  1 XY    0.000015  -0.001824   0.047367  -0.002968   0.001602
   14  C  1 XZ    0.001237  -0.001169  -0.002548   0.000530   0.000411
   15  C  1 YZ   -0.037677   0.037385  -0.001454  -0.031710  -0.013128
   16  C  1  S  -18.347111 -20.827479  -0.840874 -10.427957   2.256667
   17  C  1  X    0.005237  -0.059681   0.018366   0.042241   0.013597
   18  C  1  Y   -0.144165   2.489103  -0.025638  -1.741536  -0.949693
   19  C  1  Z   -6.220176  -5.888179  -0.240269  -2.297918   3.999633
   20  C  1 XX    0.179586   0.119924   0.006076   0.083811  -0.274896
   21  C  1 YY    0.142916  -0.559282  -0.022589  -0.209668   0.132952
   22  C  1 ZZ   -0.322503   0.439358   0.016512   0.125857   0.141944
   23  C  1 XY    0.001063   0.023190  -0.177297   0.021294  -0.017325
   24  C  1 XZ   -0.010367  -0.001826  -0.018270  -0.019084   0.000369
   25  C  1 YZ    0.448014  -0.198428   0.030379   0.863506   0.207292
   26  C  2  S   -0.045776  -0.017625  -0.000337  -0.004327   0.033950
   27  C  2  S   -0.198059  -0.048719  -0.000523  -0.000835   0.161646
   28  C  2  S    1.632026  -0.518275  -0.015591  -0.365870  -0.644651
   29  C  2  X    0.004041  -0.005835  -0.040819  -0.008552   0.004594
   30  C  2  Y   -0.038374   0.062650   0.011037   0.288312  -0.039214
   31  C  2  Z   -0.109531  -0.006807  -0.001757   0.021490  -0.249037
   32  C  2  X    0.003971  -0.031399  -0.232019  -0.015048  -0.016539
   33  C  2  Y   -0.151842   0.793426   0.041493   0.380942   0.423017
   34  C  2  Z   -1.215260   1.127122   0.070835   0.789917   1.560649
   35  C  2 XX   -0.016305   0.012187  -0.000968   0.014560   0.029005
   36  C  2 YY    0.011495   0.003518   0.001497  -0.021601   0.021177
   37  C  2 ZZ    0.004811  -0.015705  -0.000529   0.007041  -0.050182
   38  C  2 XY   -0.001837   0.000701   0.022081   0.000648  -0.000375
   39  C  2 XZ   -0.000480   0.001920   0.009176  -0.000419   0.000099
   40  C  2 YZ    0.017945  -0.052623   0.001027   0.010225  -0.007306
   41  C  2  S   18.578959  20.973841   0.855873  11.073721  -3.959416
   42  C  2  X    0.077057   0.031948  -0.168974  -0.045948  -0.042369
   43  C  2  Y   -1.686292  -1.009279  -0.002569   1.596867   1.280914
   44  C  2  Z   -6.153588  -5.239258  -0.248620  -2.436941   1.557783
   45  C  2 XX   -0.185159  -0.163365  -0.008497  -0.003522   0.184051
   46  C  2 YY   -0.168094   0.200898   0.026873   0.200992   0.179357
   47  C  2 ZZ    0.353253  -0.037533  -0.018376  -0.197470  -0.363408
   48  C  2 XY   -0.004656  -0.015566   0.255785  -0.022229   0.001273
   49  C  2 XZ   -0.008837  -0.018669  -0.114196  -0.011369  -0.005433
   50  C  2 YZ    0.337379   0.276802   0.022849   0.616095   0.325653
   51  H  3  S    0.177351  -0.180307  -0.002202  -0.091155  -0.023603
   52  H  3  S   -0.269339  -3.013928  -0.194240  -2.922575  -2.128388
   53  H  3  X   -0.000406  -0.000075  -0.004136   0.000429  -0.000163
   54  H  3  Y    0.013069  -0.002283   0.000045  -0.003169   0.002420
   55  H  3  Z    0.005033  -0.007293  -0.000146  -0.004608  -0.011915
   56  H  3  S    3.161147   1.715224   0.121248   0.179124  -2.656509
   57  H  3  X   -0.031936  -0.029683   0.523086  -0.020082  -0.053918
   58  H  3  Y    0.596424   0.625976   0.045287  -0.238285   0.705083
   59  H  3  Z    0.159471  -0.198110   0.023280   0.217664   0.250616
   60  H  4  S   -0.159995   0.216955  -0.002280   0.013769   0.017800
   61  H  4  S   -0.605282   3.612727   0.002221  -0.767755   1.185416
   62  H  4  X   -0.000613   0.000117  -0.000684   0.000049  -0.000400
   63  H  4  Y    0.019973   0.001671   0.000477   0.000036   0.015490
   64  H  4  Z    0.022176  -0.001607   0.001003   0.024629  -0.008822
   65  H  4  S   -2.017101   0.919333  -0.024191  -0.462000   0.915628
   66  H  4  X    0.003612  -0.001964  -0.731342   0.051691  -0.021863
   67  H  4  Y    0.138099   0.193883  -0.009864  -0.336132   0.593121
   68  H  4  Z    0.221309   0.134253   0.019506   0.424203  -0.852822
   69  H  5  S    0.028643  -0.054628   0.006982   0.155946   0.046483
   70  H  5  S    1.532373   1.077832   0.181414   2.750848   1.899124
   71  H  5  X    0.000287  -0.000112   0.003168  -0.000531   0.000367
   72  H  5  Y   -0.015856   0.002076   0.000344   0.016418  -0.012666
   73  H  5  Z   -0.007813   0.016216  -0.000910  -0.017899  -0.017289
   74  H  5  S   -1.450489  -3.087170  -0.102609  -0.003623   2.675253
   75  H  5  X   -0.001496  -0.007613   0.833833  -0.042770   0.021165
   76  H  5  Y   -0.473393  -0.048079   0.000607  -0.034675  -0.829480
   77  H  5  Z   -0.036498   0.604859  -0.003578  -0.523045  -0.872852

                     26         27         28         29         30
                    0.3084     0.3151     0.3554     0.3770     0.4045
                     A          A          A          A          A   
    1  C  1  S   -0.001591  -0.030539   0.000447  -0.019778   0.040348
    2  C  1  S   -0.007277  -0.129741  -0.000438  -0.059232  -0.017077
    3  C  1  S    0.066116   1.458057  -0.029008   1.784219  -2.135509
    4  C  1  X   -0.058748   0.010267  -0.246843  -0.008849  -0.002270
    5  C  1  Y   -0.008492  -0.139703  -0.006454   0.279477   0.054704
    6  C  1  Z   -0.013926  -0.251141   0.000595  -0.075455  -0.000064
    7  C  1  X   -0.346381   0.002032  -0.968901  -0.079347  -0.011395
    8  C  1  Y    0.017768   0.226654  -0.018098   3.094913   0.304738
    9  C  1  Z    0.152613   2.343628  -0.034273   1.758831  -1.819792
   10  C  1 XX    0.000266  -0.027152  -0.000124  -0.013519   0.018467
   11  C  1 YY   -0.003045   0.000598   0.000431   0.006449   0.008478
   12  C  1 ZZ    0.002780   0.026553  -0.000307   0.007069  -0.026945
   13  C  1 XY   -0.034721   0.000433   0.011071  -0.000108   0.000173
   14  C  1 XZ   -0.018323   0.001729  -0.029556   0.001159   0.000204
   15  C  1 YZ   -0.002287  -0.023286  -0.000907  -0.050413  -0.010119
   16  C  1  S    0.498772   5.247064  -0.044913   0.111533  -6.303528
   17  C  1  X   -0.097222   0.107497  -1.113635  -0.116828  -0.051543
   18  C  1  Y   -0.220276  -3.634357  -0.040199   4.832917   1.597410
   19  C  1  Z    0.183711   1.534760  -0.001755  -0.050003  -1.794164
   20  C  1 XX   -0.038617  -0.083462   0.015159  -0.078661   0.529320
   21  C  1 YY    0.000555  -0.559668   0.007300  -0.337518   0.613596
   22  C  1 ZZ    0.038062   0.643129  -0.022459   0.416180  -1.142916
   23  C  1 XY    0.518555  -0.011187  -0.226876   0.014537   0.012653
   24  C  1 XZ    0.003696  -0.039674   0.076699  -0.003044  -0.003789
   25  C  1 YZ    0.065911   1.057519   0.006227   0.318122   0.264731
   26  C  2  S    0.002188   0.028060  -0.000097   0.010557   0.032353
   27  C  2  S    0.008595   0.110775  -0.000771   0.028547  -0.012750
   28  C  2  S   -0.105884  -1.581153   0.032124  -0.583824  -0.253106
   29  C  2  X   -0.112551   0.006753   0.044455  -0.001408   0.007071
   30  C  2  Y   -0.002073   0.034099  -0.001914   0.034585  -0.202999
   31  C  2  Z   -0.002357   0.017721   0.001707  -0.017815   0.034450
   32  C  2  X   -0.637480   0.051423   0.448792  -0.025177   0.090060
   33  C  2  Y   -0.060613  -0.495459  -0.015259   0.173739  -2.257876
   34  C  2  Z    0.177772   3.026547  -0.038048   2.037801  -2.956546
   35  C  2 XX   -0.000593   0.028846   0.000602   0.007333   0.005508
   36  C  2 YY    0.005520   0.051725  -0.000566   0.011171  -0.021112
   37  C  2 ZZ   -0.004926  -0.080571  -0.000036  -0.018504   0.015604
   38  C  2 XY    0.035251  -0.002939  -0.010239  -0.000140   0.001677
   39  C  2 XZ    0.024694  -0.000386   0.015178  -0.000189   0.000380
   40  C  2 YZ   -0.000249  -0.021294   0.000083   0.006020  -0.007185
   41  C  2  S   -0.409109  -4.231628  -0.031779   0.589857   0.746547
   42  C  2  X   -0.469982  -0.077882   0.537710   0.003471   0.112994
   43  C  2  Y    0.160193   2.658244  -0.000563  -0.622437  -2.757219
   44  C  2  Z    0.277292   3.941955   0.008835   0.614012  -1.912057
   45  C  2 XX    0.042657   0.358301   0.013656   0.144886   0.898014
   46  C  2 YY   -0.003167   0.383477  -0.021884   0.773830  -0.958257
   47  C  2 ZZ   -0.039490  -0.741779   0.008228  -0.918716   0.060243
   48  C  2 XY   -0.364319   0.015628  -0.179830  -0.022982   0.089947
   49  C  2 XZ   -0.164268  -0.037580   0.326654  -0.017911  -0.002683
   50  C  2 YZ    0.062259   1.158189   0.013162   0.729345   0.121549
   51  H  3  S   -0.003151  -0.020915   0.000464   0.054121  -0.034279
   52  H  3  S   -0.182558  -2.990389   0.073797  -3.290222   6.779053
   53  H  3  X    0.004917  -0.000081   0.000138   0.000032  -0.000019
   54  H  3  Y    0.000094  -0.000665   0.000045   0.000373   0.002081
   55  H  3  Z   -0.002221  -0.034702   0.000084  -0.009661   0.008956
   56  H  3  S   -0.230083  -2.925860   0.005575  -0.573974   3.011678
   57  H  3  X    1.517011  -0.130872  -0.386923  -0.030170   0.075619
   58  H  3  Y    0.122278   1.047587  -0.020386   0.484096  -1.431157
   59  H  3  Z   -0.055598  -1.067929  -0.020486   0.742092  -0.881612
   60  H  4  S   -0.005401  -0.051759   0.001013   0.026290   0.038890
   61  H  4  S   -0.022310  -0.551587  -0.007764   4.314391   0.168436
   62  H  4  X    0.005038   0.000040  -0.011970  -0.000185  -0.000311
   63  H  4  Y    0.000541  -0.000819  -0.000180   0.005033   0.003916
   64  H  4  Z    0.000245   0.004073   0.000042   0.002877   0.000741
   65  H  4  S   -0.063812  -1.319731  -0.008793   4.141930   0.214451
   66  H  4  X    1.289779  -0.073387   0.718018   0.002451   0.028279
   67  H  4  Y    0.061062   0.152561   0.015527  -0.098791  -0.292300
   68  H  4  Z    0.039428   0.772085  -0.008899   1.553077  -0.436778
   69  H  5  S    0.000454   0.045144   0.001765   0.008777   0.022397
   70  H  5  S    0.173122   3.352795   0.011040  -2.646513   0.502854
   71  H  5  X   -0.006458   0.000199  -0.010072  -0.000433   0.000154
   72  H  5  Y   -0.000129   0.008241  -0.000182   0.014454   0.000613
   73  H  5  Z   -0.002101  -0.032926  -0.000124  -0.018262   0.001689
   74  H  5  S    0.254926   3.697007   0.032988  -3.843192  -0.965680
   75  H  5  X   -0.461365   0.014563   1.620398   0.018792  -0.015362
   76  H  5  Y   -0.057094  -0.558420   0.035815  -0.405742  -0.214818
   77  H  5  Z    0.003622   0.400303  -0.004925  -0.908287  -0.198495

                     31         32         33         34         35
                    0.4383     0.4439     0.4485     0.4762     0.4833
                     A          A          A          A          A   
    1  C  1  S    0.064974   0.011516   0.003235   0.022288   0.003782
    2  C  1  S    0.029971  -0.048916  -0.002066  -0.024528   0.019816
    3  C  1  S   -4.156386   0.933508  -0.005590  -2.196489  -0.225688
    4  C  1  X   -0.003918  -0.032080   0.247884   0.009807   0.047498
    5  C  1  Y    0.025943  -0.065048   0.002262  -0.135028  -0.029115
    6  C  1  Z    0.080890  -0.000478   0.011998  -0.008010   0.060524
    7  C  1  X   -0.031293  -0.252412   1.803973   0.129158   0.306510
    8  C  1  Y   -0.608337   1.230251   0.365546  -3.600799   0.477142
    9  C  1  Z    5.985590   3.677532   0.541252  -0.771321   0.484815
   10  C  1 XX    0.017612  -0.008838  -0.000164  -0.012746   0.001643
   11  C  1 YY   -0.026585  -0.004850  -0.001313   0.012875  -0.000851
   12  C  1 ZZ    0.008973   0.013688   0.001477  -0.000129  -0.000792
   13  C  1 XY    0.001172  -0.000612   0.002095  -0.000656   0.005147
   14  C  1 XZ   -0.000100   0.000489  -0.013977  -0.000531   0.031405
   15  C  1 YZ    0.020474   0.011052  -0.000429  -0.012638  -0.009177
   16  C  1  S   -6.885871  -3.863771  -0.857932   3.569076  -0.848314
   17  C  1  X   -0.016511  -0.169102   1.129888   0.044988  -0.166429
   18  C  1  Y   -0.574202   1.651263   0.308281  -0.785334   0.179199
   19  C  1  Z    1.104519   0.217026  -0.002130   0.795383  -0.004356
   20  C  1 XX    0.583500   0.253474   0.080615  -0.453255   0.046113
   21  C  1 YY   -1.961657  -0.727888  -0.108505   0.493321   0.022046
   22  C  1 ZZ    1.378157   0.474415   0.027890  -0.040067  -0.068159
   23  C  1 XY    0.062816   0.066498  -0.252033  -0.053484   0.323661
   24  C  1 XZ   -0.007857   0.133033  -0.105994   0.021559  -1.426738
   25  C  1 YZ    0.579146  -2.643295  -0.308083  -0.140560  -0.282930
   26  C  2  S    0.062906   0.027452   0.002825   0.053630   0.000098
   27  C  2  S   -0.000155  -0.024714  -0.007609   0.012881  -0.021473
   28  C  2  S   -6.515184  -2.393018  -0.279942  -4.277176  -0.259072
   29  C  2  X   -0.000087   0.019219  -0.254955  -0.001858   0.250352
   30  C  2  Y    0.128438   0.064205   0.001283  -0.137177   0.004141
   31  C  2  Z    0.027187  -0.081745   0.000054  -0.174449   0.038388
   32  C  2  X    0.034787  -0.078802  -0.706498   0.056283   1.529501
   33  C  2  Y   -0.675042   3.219424   0.323550  -1.442251   0.136654
   34  C  2  Z    3.123694   2.757313   0.394079  -2.345705   0.409184
   35  C  2 XX    0.033296  -0.001340  -0.000268  -0.011068  -0.003304
   36  C  2 YY   -0.012451   0.027168   0.003223   0.016752   0.002752
   37  C  2 ZZ   -0.020845  -0.025828  -0.002956  -0.005684   0.000552
   38  C  2 XY    0.001735  -0.001807   0.004344  -0.001262  -0.004088
   39  C  2 XZ    0.000881   0.000002  -0.015400  -0.001312  -0.001924
   40  C  2 YZ   -0.020205   0.054761   0.006184   0.013653   0.007648
   41  C  2  S   -0.712443   1.380370   0.404646  -4.654544   0.661428
   42  C  2  X    0.012443   0.104959  -1.177288  -0.014536   0.530446
   43  C  2  Y    0.505352   0.031102  -0.056748  -0.229748   0.013522
   44  C  2  Z   -0.234093  -0.134285  -0.073317   0.150312  -0.066998
   45  C  2 XX    0.043044   0.216474   0.064770  -0.145098  -0.127023
   46  C  2 YY    0.527201   1.356751   0.092627   0.099685  -0.026845
   47  C  2 ZZ   -0.570245  -1.573224  -0.157398   0.045413   0.153868
   48  C  2 XY   -0.000341  -0.021250  -0.661628  -0.014289   0.971921
   49  C  2 XZ   -0.004711  -0.109362   1.055129   0.055423   0.297395
   50  C  2 YZ   -0.387430  -0.823076  -0.029181  -0.355310   0.177792
   51  H  3  S   -0.092129   0.187222   0.022930   0.131194   0.035952
   52  H  3  S    1.156805  -3.211559  -0.437761   6.397377  -0.305634
   53  H  3  X    0.000743   0.000779  -0.017187  -0.001535   0.022102
   54  H  3  Y   -0.018804   0.013422   0.000368   0.029537   0.002898
   55  H  3  Z   -0.020504   0.025601   0.003231   0.003698   0.006730
   56  H  3  S   -0.037568  -0.206318  -0.015661   0.876456  -0.065349
   57  H  3  X    0.000162  -0.036644   0.742976   0.138260  -1.402375
   58  H  3  Y   -0.413573  -0.179386   0.060203  -3.214775   0.089495
   59  H  3  Z   -0.074358   1.447900   0.129385  -0.987438  -0.329047
   60  H  4  S   -0.044254  -0.082130  -0.013474   0.015238  -0.039216
   61  H  4  S    6.291286   9.260723   1.457804  -5.714759   1.202273
   62  H  4  X   -0.000233  -0.001448   0.016878   0.000365  -0.004755
   63  H  4  Y    0.007108  -0.018329  -0.001519   0.003970   0.000359
   64  H  4  Z   -0.006191  -0.011745  -0.000112  -0.000401   0.009083
   65  H  4  S    1.439246   1.880112   0.311378  -0.875968   0.158921
   66  H  4  X   -0.027925   0.084763  -1.302031   0.011430  -0.167315
   67  H  4  Y    1.152698   2.982785   0.406923  -1.576889   0.320559
   68  H  4  Z    1.845434   0.096060   0.054995  -1.222435  -0.031849
   69  H  5  S   -0.177372   0.093556   0.010284   0.112530   0.030536
   70  H  5  S    9.056538  -2.741425  -0.372302   4.656946  -0.378200
   71  H  5  X    0.000132  -0.001314   0.008063  -0.000548   0.013512
   72  H  5  Y   -0.007086  -0.005396  -0.000591   0.022874   0.003461
   73  H  5  Z    0.007120  -0.004253  -0.000867   0.003044  -0.002428
   74  H  5  S    1.528840  -0.557281  -0.102840   0.824367   0.003794
   75  H  5  X    0.050795   0.044995  -0.438182   0.070775  -1.153932
   76  H  5  Y   -2.082840   1.530543   0.186367  -2.550322  -0.029041
   77  H  5  Z    1.153455   0.950783   0.052987   1.416645  -0.097583

                     36         37         38         39         40
                    0.4874     0.4932     0.5049     0.5568     0.5630
                     A          A          A          A          A   
    1  C  1  S    0.015818   0.103769  -0.026421   0.077032   0.013080
    2  C  1  S   -0.106202  -0.000269  -0.028091   0.022515   0.005119
    3  C  1  S   -1.957223  -8.209216   4.451907  -8.271391  -1.303561
    4  C  1  X    0.009955  -0.006171   0.004597   0.003725  -0.071202
    5  C  1  Y    0.171819  -0.002009  -0.108646  -0.060068  -0.004854
    6  C  1  Z   -0.225392   0.332933  -0.090003  -0.141797  -0.025435
    7  C  1  X    0.144534  -0.014399   0.238430   0.198933  -1.364832
    8  C  1  Y   -0.478004  -0.989584  -7.095475  -0.178954  -0.033049
    9  C  1  Z   -2.897085  -2.562893   1.422004  -1.526934  -0.396560
   10  C  1 XX   -0.010469   0.009292  -0.006277   0.026829   0.005003
   11  C  1 YY    0.014431   0.030952  -0.009210  -0.007965  -0.002011
   12  C  1 ZZ   -0.003962  -0.040244   0.015487  -0.018863  -0.002992
   13  C  1 XY    0.000099  -0.000760   0.000349   0.001806  -0.002529
   14  C  1 XZ    0.003260  -0.001255   0.000686  -0.008096   0.055383
   15  C  1 YZ    0.055119  -0.004497   0.013659  -0.027778  -0.002610
   16  C  1  S    4.515284  -5.328536  -4.737288 -14.540262  -2.665647
   17  C  1  X   -0.001199   0.012206   0.050356   0.012853  -0.226589
   18  C  1  Y   -0.199048  -0.595421  -1.889947   0.891397   0.147925
   19  C  1  Z    0.411331  -0.247072  -0.969691  -4.793082  -0.879603
   20  C  1 XX   -0.305230   0.326679   0.560571  -0.067474   0.096116
   21  C  1 YY    0.629987   2.624633  -0.681295  -1.806409  -0.335998
   22  C  1 ZZ   -0.324758  -2.951312   0.120725   1.873883   0.239881
   23  C  1 XY    0.016388  -0.081511   0.046916   0.283386  -1.588115
   24  C  1 XZ   -0.271004   0.064374  -0.074514   0.283910  -2.160132
   25  C  1 YZ    0.798750   0.383062   0.273138   0.222768   0.022498
   26  C  2  S   -0.008111  -0.088568  -0.030292  -0.050268  -0.009080
   27  C  2  S    0.088456  -0.085122  -0.009528   0.133810   0.020803
   28  C  2  S    2.575705  10.103426   2.699526   2.843622   0.596556
   29  C  2  X    0.032845  -0.009489   0.004230  -0.056723   0.314241
   30  C  2  Y    0.068127  -0.022988  -0.017235   0.000145   0.004652
   31  C  2  Z   -0.187080   0.184598  -0.002225  -0.078923  -0.011789
   32  C  2  X    0.263378  -0.126442  -0.060215  -0.202683   1.429585
   33  C  2  Y   -0.549494   1.128951   3.272531   0.605473   0.068677
   34  C  2  Z   -3.176078  -2.929159   2.593447  -1.402407  -0.353577
   35  C  2 XX    0.009585  -0.049857   0.003384   0.010408   0.002389
   36  C  2 YY   -0.013560   0.004703   0.006802  -0.027012  -0.005699
   37  C  2 ZZ    0.003975   0.045154  -0.010186   0.016604   0.003310
   38  C  2 XY    0.001156  -0.001993  -0.000628   0.006123  -0.026939
   39  C  2 XZ    0.000125  -0.000093  -0.000983  -0.003428   0.033030
   40  C  2 YZ   -0.031446   0.007868   0.009520  -0.014565  -0.001568
   41  C  2  S   -4.326328   5.590612   5.740121  15.515374   2.874252
   42  C  2  X    0.081012  -0.035251  -0.025726  -0.022212   0.389281
   43  C  2  Y   -0.198852   0.471029   0.969962  -1.158579  -0.186015
   44  C  2  Z    0.384993  -0.750204  -0.692832  -3.758555  -0.705495
   45  C  2 XX    0.224964  -0.339946  -0.021009  -0.366718  -0.068790
   46  C  2 YY    0.299199  -0.540979   1.486783  -0.909220  -0.147071
   47  C  2 ZZ   -0.524163   0.880925  -1.465774   1.275938   0.215861
   48  C  2 XY    0.154560  -0.040089  -0.010792   0.031923  -0.050177
   49  C  2 XZ    0.140093  -0.039220   0.058640   0.241604  -1.889890
   50  C  2 YZ   -0.940345   0.262089  -0.351930   1.051337   0.156387
   51  H  3  S   -0.182018  -0.022912   0.045944  -0.152413  -0.019481
   52  H  3  S    2.389521  -4.042137  -7.336110  -3.049151  -0.473562
   53  H  3  X    0.003805  -0.001145   0.000464   0.000631   0.001817
   54  H  3  Y   -0.006271   0.015023   0.008623  -0.035928  -0.004822
[...]
 II,JST,KST,LST =  2  1  1  1 NREC =         1 INTLOC =    1
 II,JST,KST,LST =  3  1  1  1 NREC =         1 INTLOC =    1
 II,JST,KST,LST =  4  1  1  1 NREC =         1 INTLOC =    1
 II,JST,KST,LST =  5  1  1  1 NREC =         1 INTLOC =    1
 II,JST,KST,LST =  6  1  1  1 NREC =         1 INTLOC =    1
 II,JST,KST,LST =  7  1  1  1 NREC =         1 INTLOC =    1
 II,JST,KST,LST =  8  1  1  1 NREC =         1 INTLOC =   19
 II,JST,KST,LST =  9  1  1  1 NREC =         1 INTLOC =   19
 II,JST,KST,LST = 10  1  1  1 NREC =         1 INTLOC =  238
 II,JST,KST,LST = 11  1  1  1 NREC =         1 INTLOC =  238
 II,JST,KST,LST = 12  1  1  1 NREC =         1 INTLOC =  277
 II,JST,KST,LST = 13  1  1  1 NREC =         1 INTLOC =  843
 II,JST,KST,LST = 14  1  1  1 NREC =         1 INTLOC =  843
 II,JST,KST,LST = 15  1  1  1 NREC =         1 INTLOC = 4385
 II,JST,KST,LST = 16  1  1  1 NREC =         1 INTLOC =14270
 II,JST,KST,LST = 17  1  1  1 NREC =         1 INTLOC =14270
 II,JST,KST,LST = 18  1  1  1 NREC =         1 INTLOC =14270
 II,JST,KST,LST = 19  1  1  1 NREC =         1 INTLOC =14270
 II,JST,KST,LST = 20  1  1  1 NREC =         2 INTLOC =  671
 II,JST,KST,LST = 21  1  1  1 NREC =         2 INTLOC =  671
 II,JST,KST,LST = 22  1  1  1 NREC =         2 INTLOC =  671
 II,JST,KST,LST = 23  1  1  1 NREC =         2 INTLOC =  671
 II,JST,KST,LST = 24  1  1  1 NREC =         2 INTLOC =  671
 II,JST,KST,LST = 25  1  1  1 NREC =         2 INTLOC =  671
 II,JST,KST,LST = 26  1  1  1 NREC =         2 INTLOC =  671
 II,JST,KST,LST = 27  1  1  1 NREC =         2 INTLOC = 8174
 II,JST,KST,LST = 28  1  1  1 NREC =         3 INTLOC =  216
 II,JST,KST,LST = 29  1  1  1 NREC =         5 INTLOC =12227
 II,JST,KST,LST = 30  1  1  1 NREC =         6 INTLOC =12281
 II,JST,KST,LST = 31  1  1  1 NREC =         7 INTLOC = 2801
 II,JST,KST,LST = 32  1  1  1 NREC =         9 INTLOC =10508
 II,JST,KST,LST = 33  1  1  1 NREC =        10 INTLOC = 6699
 II,JST,KST,LST = 34  1  1  1 NREC =        15 INTLOC =13260
 II,JST,KST,LST = 35  1  1  1 NREC =        15 INTLOC =13260
 II,JST,KST,LST = 36  1  1  1 NREC =        16 INTLOC = 9800
 II,JST,KST,LST = 37  1  1  1 NREC =        17 INTLOC =12588
 II,JST,KST,LST = 38  1  1  1 NREC =        20 INTLOC = 6074
 II,JST,KST,LST = 39  1  1  1 NREC =        20 INTLOC = 6074
 II,JST,KST,LST = 40  1  1  1 NREC =        26 INTLOC = 9884
 II,JST,KST,LST = 41  1  1  1 NREC =        29 INTLOC = 6383
 II,JST,KST,LST = 42  1  1  1 NREC =        34 INTLOC = 1041
 II,JST,KST,LST = 43  1  1  1 NREC =        59 INTLOC =12092
 II,JST,KST,LST = 44  1  1  1 NREC =        59 INTLOC =12092
 II,JST,KST,LST = 45  1  1  1 NREC =        59 INTLOC =12092
 II,JST,KST,LST = 46  1  1  1 NREC =        62 INTLOC =10132
 II,JST,KST,LST = 47  1  1  1 NREC =        67 INTLOC =10181
 II,JST,KST,LST = 48  1  1  1 NREC =        73 INTLOC = 5270
 II,JST,KST,LST = 49  1  1  1 NREC =       107 INTLOC =  870
 II,JST,KST,LST = 50  1  1  1 NREC =       107 INTLOC =  870
 II,JST,KST,LST = 51  1  1  1 NREC =       113 INTLOC = 8021
 II,JST,KST,LST = 52  1  1  1 NREC =       122 INTLOC =12230
 II,JST,KST,LST = 53  1  1  1 NREC =       131 INTLOC =11691
 II,JST,KST,LST = 54  1  1  1 NREC =       137 INTLOC =11118
 II,JST,KST,LST = 55  1  1  1 NREC =       170 INTLOC =10582
 II,JST,KST,LST = 56  1  1  1 NREC =       170 INTLOC =10582
 II,JST,KST,LST = 57  1  1  1 NREC =       174 INTLOC =12949
 II,JST,KST,LST = 58  1  1  1 NREC =       187 INTLOC = 8041
 II,JST,KST,LST = 59  1  1  1 NREC =       189 INTLOC = 4135
 II,JST,KST,LST = 60  1  1  1 NREC =       201 INTLOC =13328
 II,JST,KST,LST = 61  1  1  1 NREC =       208 INTLOC = 6419
 II,JST,KST,LST = 62  1  1  1 NREC =       229 INTLOC = 3261
 II,JST,KST,LST = 63  1  1  1 NREC =       234 INTLOC = 8979
 II,JST,KST,LST = 64  1  1  1 NREC =       240 INTLOC =12769
 II,JST,KST,LST = 65  1  1  1 NREC =       264 INTLOC =13511
 II,JST,KST,LST = 66  1  1  1 NREC =       270 INTLOC =14749
 SCHWARZ INEQUALITY TEST SKIPPED       44925 INTEGRAL BLOCKS.
 TOTAL NUMBER OF NONZERO TWO-ELECTRON INTEGRALS =            66849498
       4464 INTEGRAL RECORDS WERE STORED ON DISK FILE  8.
  ...... END OF TWO-ELECTRON INTEGRALS .....
 CPU     0: STEP CPU TIME=     0.25 TOTAL CPU TIME=         23.2 (      0.4 MIN)
 TOTAL WALL CLOCK TIME=         23.7 SECONDS, CPU UTILIZATION IS    98.18%

          ---------------------------------------------
          MONOMER ELECTROSTATIC INTERACTION (OWN BASIS)
          ---------------------------------------------

          -------------
          GUESS OPTIONS
          -------------
          GUESS =MOSAVED           NORB  =       0          NORDER=       0
          MIX   =       F          PRTMO =       F          PUNMO =       F
          TOLZ  = 1.0E-08          TOLE  = 1.0E-05
          SYMDEN=       F          PURIFY=       F

 INITIAL GUESS ORBITALS GENERATED BY MOSAVED  ROUTINE.

 STATISTICS FOR GENERATION OF SYMMETRY ORBITAL -Q- MATRIX
 NUMBER OF CARTESIAN ATOMIC ORBITALS=        154
 NUMBER OF SPHERICAL CONTAMINANTS DROPPED=     8
 NUMBER OF LINEARLY DEPENDENT MOS DROPPED=     0
 TOTAL NUMBER OF MOS IN VARIATION SPACE=     146
 ...... END OF INITIAL ORBITAL SELECTION ......
 CPU     0: STEP CPU TIME=     0.01 TOTAL CPU TIME=         23.2 (      0.4 MIN)
 TOTAL WALL CLOCK TIME=         23.7 SECONDS, CPU UTILIZATION IS    98.18%

          ---------------------------
                  UHF SCF CALCULATION
          ---------------------------

 FINAL UHF ENERGY IS     -155.2914140296 AFTER   1 ITERATIONS
 ...... END OF UHF CALCULATION ......
 CPU     0: STEP CPU TIME=     0.08 TOTAL CPU TIME=         23.3 (      0.4 MIN)
 TOTAL WALL CLOCK TIME=         23.8 SECONDS, CPU UTILIZATION IS    98.16%

          -------------
          GUESS OPTIONS
          -------------
          GUESS =MOSAVED           NORB  =       0          NORDER=       0
          MIX   =       F          PRTMO =       F          PUNMO =       F
          TOLZ  = 1.0E-08          TOLE  = 1.0E-05
          SYMDEN=       F          PURIFY=       F

 INITIAL GUESS ORBITALS GENERATED BY MOSAVED  ROUTINE.

 STATISTICS FOR GENERATION OF SYMMETRY ORBITAL -Q- MATRIX
 NUMBER OF CARTESIAN ATOMIC ORBITALS=        154
 NUMBER OF SPHERICAL CONTAMINANTS DROPPED=     8
 NUMBER OF LINEARLY DEPENDENT MOS DROPPED=     0
 TOTAL NUMBER OF MOS IN VARIATION SPACE=     146
 ...... END OF INITIAL ORBITAL SELECTION ......
 CPU     0: STEP CPU TIME=     0.00 TOTAL CPU TIME=         23.3 (      0.4 MIN)
 TOTAL WALL CLOCK TIME=         23.8 SECONDS, CPU UTILIZATION IS    98.16%

          ---------------------------
                  UHF SCF CALCULATION
          ---------------------------

 DIRECT SCF CALCULATION, SCHWRZ=T   FDIFF=T
 SCHWARZ INEQUALITY OVERHEAD:     11935 INTEGRALS, T=        0.00

 FINAL UHF ENERGY IS     -331.3036102064 AFTER   1 ITERATIONS
 ...... END OF UHF CALCULATION ......
 CPU     0: STEP CPU TIME=     0.25 TOTAL CPU TIME=         23.6 (      0.4 MIN)
 TOTAL WALL CLOCK TIME=         24.0 SECONDS, CPU UTILIZATION IS    98.14%

 XEDA STEP ENERGY SUMMATION
 ETOT =       -155.29141403     ENUC =        102.54488292
 EEXCH=        -22.94216336

          --------------------------------------------------
          MONOMER EXCHANGE-REPULSION INTERACTION (OWN BASIS)
          --------------------------------------------------

          -------------
          GUESS OPTIONS
          -------------
          GUESS =MOSAVED           NORB  =       0          NORDER=       0
          MIX   =       F          PRTMO =       F          PUNMO =       F
          TOLZ  = 1.0E-08          TOLE  = 1.0E-05
          SYMDEN=       F          PURIFY=       F

 INITIAL GUESS ORBITALS GENERATED BY MOSAVED  ROUTINE.

 STATISTICS FOR GENERATION OF SYMMETRY ORBITAL -Q- MATRIX
 NUMBER OF CARTESIAN ATOMIC ORBITALS=        154
 NUMBER OF SPHERICAL CONTAMINANTS DROPPED=     8
 NUMBER OF LINEARLY DEPENDENT MOS DROPPED=     0
 TOTAL NUMBER OF MOS IN VARIATION SPACE=     146
 ...... END OF INITIAL ORBITAL SELECTION ......
 CPU     0: STEP CPU TIME=     0.01 TOTAL CPU TIME=         23.6 (      0.4 MIN)
 TOTAL WALL CLOCK TIME=         24.0 SECONDS, CPU UTILIZATION IS    98.14%

          ---------------------------
                  UHF SCF CALCULATION
          ---------------------------

 FINAL UHF ENERGY IS     -154.6306159167 AFTER   1 ITERATIONS
 ...... END OF UHF CALCULATION ......
 CPU     0: STEP CPU TIME=     0.08 TOTAL CPU TIME=         23.7 (      0.4 MIN)
 TOTAL WALL CLOCK TIME=         24.1 SECONDS, CPU UTILIZATION IS    98.10%

 XEDA STEP ENERGY SUMMATION
 ETOT =       -154.63061592     ENUC =        102.54488292

          ---------------------------------------------
          MONOMER ELECTROSTATIC INTERACTION (ALL BASIS)
          ---------------------------------------------

          -------------
          GUESS OPTIONS
          -------------
          GUESS =MOSAVED           NORB  =       0          NORDER=       0
          MIX   =       F          PRTMO =       F          PUNMO =       F
          TOLZ  = 1.0E-08          TOLE  = 1.0E-05
          SYMDEN=       F          PURIFY=       F

 INITIAL GUESS ORBITALS GENERATED BY MOSAVED  ROUTINE.

 STATISTICS FOR GENERATION OF SYMMETRY ORBITAL -Q- MATRIX
 NUMBER OF CARTESIAN ATOMIC ORBITALS=        154
 NUMBER OF SPHERICAL CONTAMINANTS DROPPED=     8
 NUMBER OF LINEARLY DEPENDENT MOS DROPPED=     0
 TOTAL NUMBER OF MOS IN VARIATION SPACE=     146
 ...... END OF INITIAL ORBITAL SELECTION ......
 CPU     0: STEP CPU TIME=     0.01 TOTAL CPU TIME=         23.7 (      0.4 MIN)
 TOTAL WALL CLOCK TIME=         24.1 SECONDS, CPU UTILIZATION IS    98.10%

          ---------------------------
                  UHF SCF CALCULATION
          ---------------------------

 FINAL UHF ENERGY IS     -155.2985236768 AFTER   1 ITERATIONS
 ...... END OF UHF CALCULATION ......
 CPU     0: STEP CPU TIME=     0.08 TOTAL CPU TIME=         23.7 (      0.4 MIN)
 TOTAL WALL CLOCK TIME=         24.2 SECONDS, CPU UTILIZATION IS    98.07%

          -------------
          GUESS OPTIONS
          -------------
          GUESS =MOSAVED           NORB  =       0          NORDER=       0
          MIX   =       F          PRTMO =       F          PUNMO =       F
          TOLZ  = 1.0E-08          TOLE  = 1.0E-05
          SYMDEN=       F          PURIFY=       F

 INITIAL GUESS ORBITALS GENERATED BY MOSAVED  ROUTINE.

 STATISTICS FOR GENERATION OF SYMMETRY ORBITAL -Q- MATRIX
 NUMBER OF CARTESIAN ATOMIC ORBITALS=        154
 NUMBER OF SPHERICAL CONTAMINANTS DROPPED=     8
 NUMBER OF LINEARLY DEPENDENT MOS DROPPED=     0
 TOTAL NUMBER OF MOS IN VARIATION SPACE=     146
 ...... END OF INITIAL ORBITAL SELECTION ......
 CPU     0: STEP CPU TIME=     0.01 TOTAL CPU TIME=         23.8 (      0.4 MIN)
 TOTAL WALL CLOCK TIME=         24.2 SECONDS, CPU UTILIZATION IS    98.07%

          ---------------------------
                  UHF SCF CALCULATION
          ---------------------------

 DIRECT SCF CALCULATION, SCHWRZ=T   FDIFF=T
 SCHWARZ INEQUALITY OVERHEAD:     11935 INTEGRALS, T=        0.00

 FINAL UHF ENERGY IS     -331.3266448573 AFTER   1 ITERATIONS
 ...... END OF UHF CALCULATION ......
 CPU     0: STEP CPU TIME=     0.25 TOTAL CPU TIME=         24.0 (      0.4 MIN)
 TOTAL WALL CLOCK TIME=         24.5 SECONDS, CPU UTILIZATION IS    98.05%

 XEDA STEP ENERGY SUMMATION
 ETOT =       -155.29852368     ENUC =        102.54488292
 EEXCH=        -22.94307596

          --------------------------------------------------
          MONOMER EXCHANGE-REPULSION INTERACTION (ALL BASIS)
          --------------------------------------------------

          -------------
          GUESS OPTIONS
          -------------
          GUESS =MOSAVED           NORB  =       0          NORDER=       0
          MIX   =       F          PRTMO =       F          PUNMO =       F
          TOLZ  = 1.0E-08          TOLE  = 1.0E-05
          SYMDEN=       F          PURIFY=       F

 INITIAL GUESS ORBITALS GENERATED BY MOSAVED  ROUTINE.

 STATISTICS FOR GENERATION OF SYMMETRY ORBITAL -Q- MATRIX
 NUMBER OF CARTESIAN ATOMIC ORBITALS=        154
 NUMBER OF SPHERICAL CONTAMINANTS DROPPED=     8
 NUMBER OF LINEARLY DEPENDENT MOS DROPPED=     0
 TOTAL NUMBER OF MOS IN VARIATION SPACE=     146
 ...... END OF INITIAL ORBITAL SELECTION ......
 CPU     0: STEP CPU TIME=     0.01 TOTAL CPU TIME=         24.0 (      0.4 MIN)
 TOTAL WALL CLOCK TIME=         24.5 SECONDS, CPU UTILIZATION IS    98.05%

          ---------------------------
                  UHF SCF CALCULATION
          ---------------------------

 FINAL UHF ENERGY IS     -154.6355818123 AFTER   1 ITERATIONS
 ...... END OF UHF CALCULATION ......
 CPU     0: STEP CPU TIME=     0.08 TOTAL CPU TIME=         24.1 (      0.4 MIN)
 TOTAL WALL CLOCK TIME=         24.6 SECONDS, CPU UTILIZATION IS    98.02%

 XEDA STEP ENERGY SUMMATION
 ETOT =       -154.63558181     ENUC =        102.54488292

          --------------------------------
          RESULTS OF INTERACTION ANALYSIS
          --------------------------------

     ENERGY TERMS
     T   ELECTRON KINETIC AND COULOMB POTENTIAL
     X   E-E EXCHANGE COMBINE WITH DIAGNANAL VALUE
     N   NUCLEUS-NUCLEUS REPULSION ENERGY

 --------------
 MONOMER ENERGY
 --------------

 MONOMER    1

                   OWN BASIS           ALL BASIS

 T              -93.96087837        -93.96124076
 X              -11.31414205        -11.31436934
 N               27.89728117         27.89728117
 EC              -0.47431586         -0.47475885
 E              -77.85205512        -77.85308778

 MONOMER    2

                   OWN BASIS           ALL BASIS

 T              -93.96084330        -93.96119956
 X              -11.31414131        -11.31437037
 N               27.89724503         27.89724503
 EC              -0.47431689         -0.47476381
 E              -77.85205647        -77.85308872

 ------------------------------------------------------------
 SUPER MOLECULE ENERGY  USING NON-ANTISYMMETRIC WAVEFUNCTION
 (ELECTROSTATIC ENERGY: T N CHANGE)
 ------------------------------------------------------------

              FROM OWN BASIS      FROM ALL BASIS
 T             -234.89413359       -234.90033064
 X              -22.62828336        -22.62873971
 N              102.54488292        102.54488292
 E             -154.97753403       -154.98418743

 ----------------------------------------------------------------------
 SUPER MOLECULE ENERGY  USING ANTISYMMETRIC NONORTHONORMAL WAVEFUNCTION
 (EXCHANGE ENERGY: ONLY X CHANGES)
 ----------------------------------------------------------------------

              FROM OWN BASIS      FROM ALL BASIS
 T             -234.89413359       -234.90033064
 X              -22.94216336        -22.94307596
 N              102.54488292        102.54488292
 E             -155.29141403       -155.29852368

 -----------------------------------------------------------------------
 SUPER MOLECULE ENERGY  USING ANTISYMMETRIC AND ORTHONORMAL WAVEFUNCTION
 (REPULSION ENERGY: T X CHANGE)
 -----------------------------------------------------------------------

              FROM OWN BASIS      FROM ALL BASIS
 T+X           -257.17549884       -257.18046473
 N              102.54488292        102.54488292
 E             -154.63061592       -154.63558181

 ---------------------------------------------
 SUPER MOLECULE ENERGY  USING SCF WAVEFUNCTION
 (POLARIZATION ENERGY: T X CHANGE)
 ---------------------------------------------
 T+X           -257.45106609
 N              102.54488292
 EC              -0.98430042
 E             -155.89048359


                   *******************************
                   SUMMARY OF INTERACTION ENERGIES
                     XEDA IN XIAMEN UNIVERSITY    
                    - ZHEN TANG AND PEIFENG SU -  
                   *******************************


 -------------
 OWN BASIS SET                                       HARTREE          KCAL/MOL
 -------------
 ELECTROSTATIC ENERGY                  ES=         -0.222055           -139.34
 EXCHANGE ENERGY                       EX=         -0.313880           -196.96
 REPULSION ENERGY                     REP=          0.660798            414.66
 POLARIZATION ENERGY                  POL=         -0.275567           -172.92
 ELECTRON CORRELATION                CORR=         -0.035668            -22.38
 TOTAL INTERACTION ENERGY               E=         -0.186372           -116.95
  

 -------------
 ALL BASIS SET                                       HARTREE          KCAL/MOL
 -------------
 ELECTROSTATIC ENERGY                  ES=         -0.227534           -142.78
 EXCHANGE ENERGY                       EX=         -0.314336           -197.25
 REPULSION ENERGY                     REP=          0.662942            416.00
 POLARIZATION ENERGY                  POL=         -0.270601           -169.81
 ELECTRON CORRELATION                CORR=         -0.034778            -21.82
 TOTAL INTERACTION ENERGY               E=         -0.184307           -115.65
  

                     ***************************
                     END OF INTERACTION ANALYSIS
                     ***************************

              1301896  WORDS OF DYNAMIC MEMORY USED
 EXECUTION OF GAMESS TERMINATED NORMALLY 14:31:21 25-DEC-2023    
 DDI: 263640 bytes (0.3 MB / 0 MWords) used by master data server.

 ----------------------------------------
 CPU timing information for all processes
 ========================================
 0: 23.433 + 0.669 = 24.102
 1: 23.281 + 0.516 = 23.798
 2: 23.248 + 0.615 = 23.864
 3: 23.271 + 0.568 = 23.840
 4: 23.265 + 0.630 = 23.895
 5: 23.279 + 0.522 = 23.801
 6: 22.947 + 0.470 = 23.418
 7: 23.296 + 0.547 = 23.843
 8: 22.997 + 0.498 = 23.495
 9: 22.964 + 0.414 = 23.379
 10: 23.270 + 0.567 = 23.837
 11: 23.244 + 0.510 = 23.754
 12: 23.211 + 0.649 = 23.861
 13: 23.238 + 0.519 = 23.758
 14: 23.176 + 0.559 = 23.735
 15: 23.254 + 0.545 = 23.799
 ----------------------------------------
 ddikick.x: exited gracefully.
----- accounting info -----
Files used on the master node w016 were:
-rw-r--r-- 1 xacs0647 10000  2703863 Dec 25 14:31 /job_dir/18_1685741/18.dat
-rw-r--r-- 1 xacs0647 10000      243 Dec 25 14:31 /job_dir/18_1685741/18.err
-rw-r--r-- 1 xacs0647 10000      837 Dec 25 14:30 /job_dir/18_1685741/18.F05
-rw-r--r-- 1 xacs0647 10000 51844608 Dec 25 14:31 /job_dir/18_1685741/18.F08
-rw-r--r-- 1 xacs0647 10000 49324384 Dec 25 14:31 /job_dir/18_1685741/18.F08.001
-rw-r--r-- 1 xacs0647 10000 47704240 Dec 25 14:31 /job_dir/18_1685741/18.F08.002
-rw-r--r-- 1 xacs0647 10000 54364832 Dec 25 14:31 /job_dir/18_1685741/18.F08.003
-rw-r--r-- 1 xacs0647 10000 47344208 Dec 25 14:31 /job_dir/18_1685741/18.F08.004
-rw-r--r-- 1 xacs0647 10000 46624144 Dec 25 14:31 /job_dir/18_1685741/18.F08.005
-rw-r--r-- 1 xacs0647 10000 51484576 Dec 25 14:31 /job_dir/18_1685741/18.F08.006
-rw-r--r-- 1 xacs0647 10000 53464752 Dec 25 14:31 /job_dir/18_1685741/18.F08.007
-rw-r--r-- 1 xacs0647 10000 58865232 Dec 25 14:31 /job_dir/18_1685741/18.F08.008
-rw-r--r-- 1 xacs0647 10000 53104720 Dec 25 14:31 /job_dir/18_1685741/18.F08.009
-rw-r--r-- 1 xacs0647 10000 48964352 Dec 25 14:31 /job_dir/18_1685741/18.F08.010
-rw-r--r-- 1 xacs0647 10000 43203840 Dec 25 14:31 /job_dir/18_1685741/18.F08.011
-rw-r--r-- 1 xacs0647 10000 51844608 Dec 25 14:31 /job_dir/18_1685741/18.F08.012
-rw-r--r-- 1 xacs0647 10000 46444128 Dec 25 14:31 /job_dir/18_1685741/18.F08.013
-rw-r--r-- 1 xacs0647 10000 50404480 Dec 25 14:31 /job_dir/18_1685741/18.F08.014
-rw-r--r-- 1 xacs0647 10000 48604320 Dec 25 14:31 /job_dir/18_1685741/18.F08.015
-rw-r--r-- 1 xacs0647 10000  5758720 Dec 25 14:31 /job_dir/18_1685741/18.F10
-rw-r--r-- 1 xacs0647 10000      837 Dec 25 14:30 /job_dir/18_1685741/18.inp
-rw-r--r-- 1 xacs0647 10000  2403327 Dec 25 14:31 /job_dir/18_1685741/18.out
Mon Dec 25 14:31:24 CST 2023
0.097u 0.065s 0:27.77 0.5%	0+0k 0+40io 0pf+0w
