----- GAMESS execution script 'rungms' -----
This job is running on host w016
under operating system Linux at Mon Dec 25 14:30:56 CST 2023
Available scratch disk space (Kbyte units) at beginning of the job is
Filesystem              1K-blocks     Used Available Use% Mounted on
/dev/mapper/system-root 932514944 12965028 919549916   2% /
GAMESS temporary binary files will be written to /job_dir/19_1685742
GAMESS supplementary output files will be written to /job_dir/19_1685742
Copying input file ./19.inp to your run's scratch directory...
 
Assuming a single but multicore node.
 

 Distributed Data Interface kickoff program.
 Initiating 16 compute processes on 1 nodes to run the following command:
 /share/apps/xeda-apps/xeda-td/gamess.00.x 19 

          *******************************************************
          *                                                     *
          *          GAMESS VERSION = 30 SEP 2020 (R2)          *
          *                                                     *
          *              doi.org/10.1063/5.0005188              *
          *                                                     *
          **************** 64 BIT LINUX VERSION *****************

  GAMESS HAS BEEN MADE POSSIBLE WITH IMPORTANT CONTRIBUTIONS FROM
  THE FOLLOWING INDIVIDUALS (IN ALPHABETICAL ORDER):

     IVANA ADAMOVIC, CHRISTINE AIKENS, TOMOKO AKAMA,
     YURI ALEXEEV, YURIKO AOKI, POOJA ARORA, TOSHIO ASADA,
     ANDREY ASADCHEV, KIM K. BALDRIDGE, PRADIPTA BANDYOPADHYAY,
     MARIA BARYSZ, ROB BELL, JONATHAN BENTZ, COLLEEN BERTONI,
     JERRY A. BOATZ, BRETT BODE, KURT BRORSEN, KURT R. BRORSEN,
     LAIMUTIS BYTAUTAS, CALEB CARLIN, LAURA CARRINGTON,
     GALINA CHABAN, BENOIT CHAMPAGNE, WEI CHEN, MAHITO CHIBA,
     DAN CHIPMAN, CHEOL HO CHOI, TANNER CULPITT,
     DIPAYAN DATTA, PAUL DAY, ALBERT DEFUSCO,
     NUWAN DESILVA, J. EMILIANO DEUSTUA,
     TIM DUDLEY, MICHEL DUPUIS, STEVEN T. ELBERT,
     DMITRI FEDOROV, ALEX FINDLATER, GRAHAM FLETCHER,
     MARK FREITAG, CHRISTIAN FRIEDL, DAVID GARMER,
     IGOR S. GERASIMOV, KURT GLAESEMANN, MARK S. GORDON,
     JEFFREY GOUR, FENG LONG GU, EMILIE B. GUIDEZ,
     ANASTASIA GUNINA, SHARON HAMMES-SCHIFFER, MASATAKE HARUTA,
     KIMIHIKO HIRAO, YASUHIRO IKABATA, TZVETELIN IORDANOV,
     STEPHAN IRLE, KAZUYA ISHIMURA, JOE IVANIC, FRANK JENSEN,
     JAN H. JENSEN, VISVALDAS KAIRYS, MUNEAKI KAMIYA,
     MICHIO KATOUDA, NAOAKI KAWAKAMI, DAN KEMP, BERNARD KIRTMAN,
     KAZUO KITAURA, MARIUSZ KLOBUKOWSKI, MASATO KOBAYASHI,
     PRAKASHAN KORAMBATH, JACEK KORCHOWIEC, SHIRO KOSEKI,
     KAROL KOWALSKI, JIMMY KROMANN, STANISLAW KUCHARSKI,
     HENRY KURTZ, SAROM SOK LEANG, HUI LI, SHUHUA LI, WEI LI,
     JESSE LUTZ, ALEKSANDR O. LYKHIN, MARCIN MAKOWSKI,
     JOANI MATO, NIKITA MATSUNAGA, BENEDETTA MENNUCCI,
     GRANT MERRILL, NORIYUKI MINEZAWA, VLADIMIR MIRONOV,
     EISAKU MIYOSHI, JOHN A. MONTGOMERY JR., HIROTOSHI MORI,
     JONATHAN MULLIN, MONIKA MUSIAL, SHIGERU NAGASE,
     TAKESHI NAGATA, HIROMI NAKAI, TAKAHITO NAKAJIMA,
     YUYA NAKAJIMA, HARUYUKI NAKANO, HIROYA NAKATA, SEAN NEDD,
     HEATHER NETZLOFF, KIET A. NGUYEN, YOSHIO NISHIMOTO,
     BOSILJKA NJEGIC, RYAN OLSON, MIKE PAK, ROBERTO PEVERATI,
     BUU PHAM, PIOTR PIECUCH, ANNA POMOGAEVA, DAVID POOLE,
     SPENCER PRUITT, OLIVIER QUINET, LUKE ROSKOP,
     KLAUS RUEDENBERG, ANDREW SAND, TOSAPORN SATTASATHUCHANA,
     NOZOMI SAWADA, MICHAEL W. SCHMIDT, PATRICK E. SCHNEIDER,
     JUNJI SEINO, PRACHI SHARMA, JUN SHEN, JIM SHOEMAKER,
     YINAN SHU, DEJUN SI, JONATHAN SKONE, LYUDMILA SLIPCHENKO,
     TONY SMITH, JIE SONG, MARK SPACKMAN, CASPER STEINMANN,
     WALT STEVENS, PEIFENG SU, SHUJUN SU, CHET SWALINA,
     TETSUYA TAKETSUGU, ZHEN TAO, NANDUN THELLAMUREGE
     SEIKEN TOKURA, JACOPO TOMASI, TSUGUKI TOUMA, TAKAO TSUNEDA,
     HIROAKI UMEDA, JORGE LUIS GALVEZ VALLEJO, YALI WANG,
     SIMON WEBB, AARON WEST, THERESA L. WINDUS, MARTA WLOCH,
     PENG XU, KIYOSHI YAGI, SUSUMU YANAGISAWA, YANG YANG,
     SOOHAENG YOO, TAKESHI YOSHIKAWA, FEDERICO ZAHARIEV,
     TOBY ZENG

  WHO ARE SUPPORTED BY THEIR INSTITUTION/UNIVERSITY/COMPANY/GROUP
  (IN ALPHABETICAL ORDER):

     EP ANALYTICS, FACULTES UNIVERSITAIRES NOTRE-DAME DE LA PAIX,
     INSTITUTE FOR MOLECULAR SCIENCE, IOWA STATE UNIVERSITY,
     JACKSON STATE UNIVERSITY, JOHANNES KEPLER UNIVERSITY LINZ,
     KYUSHU UNIVERSITY, MICHIGAN STATE UNIVERSITY,
     MIE UNIVERSITY, MOSCOW STATE UNIVERSITY,
     N. COPERNICUS UNIVERSITY, NAGOYA UNIVERSITY,
     NANJING UNIVERSITY, NAT. INST. OF ADVANCED INDUSTRIAL
     SCIENCE AND TECHNOLOGY, NATIONAL INST. OF STANDARDS AND
     TECHNOLOGY, NESMEYANOV INSTITUTE OF ORGANOELEMENT COMPOUNDS
     OF RUSSIAN ACADEMY OF SCIENCES, OSAKA PREFECTURE UNIVERSITY,
     PENNSYLVANIA STATE UNIVERSITY, TOKYO INSTITUTE OF TECHNOLOGY,
     UNIVERSITY OF AARHUS, UNIVERSITY OF ALBERTA,
     UNIVERSITY OF CALIFORNIA AT SANTA BARBARA,
     UNIVERSITY OF COPENHAGEN, UNIVERSITY OF IOWA,
     UNIVERSITY OF MEMPHIS, UNIVERSITY OF MINNESOTA,
     UNIVERSITY OF NEBRASKA, UNIVERSITY OF NEW ENGLAND,
     UNIVERSITY OF NOTRE DAME, UNIVERSITY OF PISA,
     UNIVERSITY OF SILESIA, UNIVERSITY OF TOKYO,
     UNIVERSITY OF ZURICH, WASEDA UNIVERSITY, YALE UNIVERSITY

  GAMESS SOFTWARE MANAGEMENT TEAM FOR THIS RELEASE:
     MARK S. GORDON (TEAM LEAD),
     BRETT BODE (SENIOR ADVISOR),
     GIUSEPPE BARCA,
     COLLEEN BERTONI,
     KRISTOPHER KEIPERT (ADVISOR),
     SAROM S. LEANG (DEVELOPMENT LEAD),
     BUU PHAM,
     JORGE LUIS GALVEZ VALLEJO (WEBSITE ADMINISTRATOR),
     PENG XU


 PARALLEL VERSION RUNNING ON       16 PROCESSORS IN        1 NODES.

 EXECUTION OF GAMESS BEGUN 14:30:56 25-DEC-2023    

            ECHO OF THE FIRST FEW INPUT CARDS -
 INPUT CARD> $CONTRL SCFTYP=UHF RUNTYP=EDA dfttyp=B3LYP ispher=1 icharg=0 mult=1 $END       
 INPUT CARD> $SYSTEM  mwords=150 memddi=150 $END                                            
 INPUT CARD> $BASIS gbasis=accd $END                                                        
 INPUT CARD> $LMOEDA MATOM(1)=5 5 MCHARG(1)=0 0 MMULT(1)=2 -2 edatyp=gks $end               
 INPUT CARD> $scf DIIS=.TRUE. ETHRSH=2.0 SWDIIS=0.005 $end                                  
 INPUT CARD> $data                                                                          
 INPUT CARD> EDA calculation with XEDA 1.0                                                  
 INPUT CARD> c1                                                                             
 INPUT CARD>C   6   -0.2851688285    0.7568153819   -1.5796586004                           
 INPUT CARD>C   6   -0.2851688285    0.7568153819   -0.2253689998                           
 INPUT CARD>H   1   -0.3057454653    1.7134407624    0.3121326953                           
 INPUT CARD>H   1   -0.2697673344   -0.1721103862   -2.1574234549                           
 INPUT CARD>H   1   -0.2939986147    1.6857675793   -2.1553599344                           
 INPUT CARD>C   6   -0.2851688285   -0.4877309815    0.6210794983                           
 INPUT CARD>C   6    0.8177039828   -1.0080788470    1.2101629633                           
 INPUT CARD>H   1    1.8052960333   -0.5524096826    1.0919227446                           
 INPUT CARD>H   1    0.7705667794   -1.9105055782    1.8248706448                           
 INPUT CARD>H   1   -1.2562434750   -0.9763735174    0.7717214405                           
 INPUT CARD> $end                                                                           
  150000000 WORDS OF MEMORY AVAILABLE

     BASIS OPTIONS
     -------------
     GBASIS=ACCD         IGAUSS=       0      POLAR=NONE    
     NDFUNC=       0     NFFUNC=       0     DIFFSP=       F
     NPFUNC=       0      DIFFS=       F     BASNAM=        


     RUN TITLE
     ---------
  EDA calculation with XEDA 1.0                                                  

 THE POINT GROUP OF THE MOLECULE IS C1      
 THE ORDER OF THE PRINCIPAL AXIS IS     0

 ATOM      ATOMIC                      COORDINATES (BOHR)
           CHARGE         X                   Y                   Z
 C           6.0    -0.5388909461        1.4301736951       -2.9851219089
 C           6.0    -0.5388909461        1.4301736951       -0.4258856557
 H           1.0    -0.5777751514        3.2379335371        0.5898452659
 H           1.0    -0.5097863425       -0.3252414696       -4.0769391692
 H           1.0    -0.5555768226        3.1856388039       -4.0730396809
 C           6.0    -0.5388909461       -0.9216779108        1.1736700684
 C           6.0     1.5452364666       -1.9049927948        2.2868764011
 H           1.0     3.4115148297       -1.0439029331        2.0634347871
 H           1.0     1.4561600683       -3.6103320408        3.4485054817
 H           1.0    -2.3739559416       -1.8450784096        1.4583420614

          INTERNUCLEAR DISTANCES (ANGS.)
          ------------------------------

                1 C          2 C          3 H          4 H          5 H     

   1 C       0.0000000    1.3542896 *  2.1200070 *  1.0940533 *  1.0929145 *
   2 C       1.3542896 *  0.0000000    1.0974806 *  2.1438225 *  2.1419372 *
   3 H       2.1200070 *  1.0974806 *  0.0000000    3.1072987    2.4676758 *
   4 H       1.0940533 *  2.1438225 *  3.1072987    0.0000000    1.8580371 *
   5 H       1.0929145 *  2.1419372 *  2.4676758 *  1.8580371 *  0.0000000  
   6 C       2.5282689 *  1.5051148 *  2.2228425 *  2.7964142 *  3.5260161  
   7 C       3.4805581    2.5282271 *  3.0781920    3.6362172    4.4519025  
   8 H       3.6361326    2.7963139 *  3.1935321    3.8741149    4.4678093  
   9 H       4.4519657    3.5259979    4.0718314    4.4679950    5.4688861  
  10 H       3.0782979    2.2228628 *  2.8895967 *  3.1937226    4.0719425  

                6 C          7 C          8 H          9 H         10 H     

   1 C       2.5282689 *  3.4805581    3.6361326    4.4519657    3.0782979  
   2 C       1.5051148 *  2.5282271 *  2.7963139 *  3.5259979    2.2228628 *
   3 H       2.2228425 *  3.0781920    3.1935321    4.0718314    2.8895967 *
   4 H       2.7964142 *  3.6362172    3.8741149    4.4679950    3.1937226  
   5 H       3.5260161    4.4519025    4.4678093    5.4688861    4.0719425  
   6 C       0.0000000    1.3542931 *  2.1438097 *  2.1419567 *  1.0974746 *
   7 C       1.3542931 *  0.0000000    1.0940536 *  1.0929142 *  2.1200222 *
   8 H       2.1438097 *  1.0940536 *  0.0000000    1.8580371 *  3.1072976  
   9 H       2.1419567 *  1.0929142 *  1.8580371 *  0.0000000    2.4677289 *
  10 H       1.0974746 *  2.1200222 *  3.1072976    2.4677289 *  0.0000000  

  * ... LESS THAN  3.000


     ATOMIC BASIS SET
     ----------------
 THE CONTRACTED PRIMITIVE FUNCTIONS HAVE BEEN UNNORMALIZED
 THE CONTRACTED BASIS FUNCTIONS ARE NOW NORMALIZED TO UNITY

  SHELL TYPE  PRIMITIVE        EXPONENT          CONTRACTION COEFFICIENT(S)

 C         

      1   S       1          6665.0000000    0.000691583963
      1   S       2          1000.0000000    0.005325796153
      1   S       3           228.0000000    0.027060721042
      1   S       4            64.7100000    0.101656846141
      1   S       5            21.0600000    0.274574823617
      1   S       6             7.4950000    0.448294318924
      1   S       7             2.7970000    0.284902610715
      1   S       8             0.5215000    0.015194859206

      2   S       9          6665.0000000   -0.000293269653
      2   S      10          1000.0000000   -0.002318035474
      2   S      11           228.0000000   -0.011499786039
      2   S      12            64.7100000   -0.046826727010
      2   S      13            21.0600000   -0.128466168750
      2   S      14             7.4950000   -0.301266272463
      2   S      15             2.7970000   -0.255630702330
      2   S      16             0.5215000    1.093793361012

      3   S      17             0.1596000    1.000000000000

      4   P      18             9.4390000    0.056979251590
      4   P      19             2.0020000    0.313207211501
      4   P      20             0.5456000    0.760376741738

      5   P      21             0.1517000    1.000000000000

      6   D      22             0.5500000    1.000000000000

      7   S      23             0.0469000    1.000000000000

      8   P      24             0.0404100    1.000000000000

      9   D      25             0.1510000    1.000000000000

 C         

     10   S      26          6665.0000000    0.000691583963
     10   S      27          1000.0000000    0.005325796153
     10   S      28           228.0000000    0.027060721042
     10   S      29            64.7100000    0.101656846141
     10   S      30            21.0600000    0.274574823617
     10   S      31             7.4950000    0.448294318924
     10   S      32             2.7970000    0.284902610715
     10   S      33             0.5215000    0.015194859206

     11   S      34          6665.0000000   -0.000293269653
     11   S      35          1000.0000000   -0.002318035474
     11   S      36           228.0000000   -0.011499786039
     11   S      37            64.7100000   -0.046826727010
     11   S      38            21.0600000   -0.128466168750
     11   S      39             7.4950000   -0.301266272463
     11   S      40             2.7970000   -0.255630702330
     11   S      41             0.5215000    1.093793361012

     12   S      42             0.1596000    1.000000000000

     13   P      43             9.4390000    0.056979251590
     13   P      44             2.0020000    0.313207211501
     13   P      45             0.5456000    0.760376741738

     14   P      46             0.1517000    1.000000000000

     15   D      47             0.5500000    1.000000000000

     16   S      48             0.0469000    1.000000000000

     17   P      49             0.0404100    1.000000000000

     18   D      50             0.1510000    1.000000000000

 H         

     19   S      51            13.0100000    0.033498726390
     19   S      52             1.9620000    0.234800801174
     19   S      53             0.4446000    0.813682957883

     20   S      54             0.1220000    1.000000000000

     21   P      55             0.7270000    1.000000000000

     22   S      56             0.0297400    1.000000000000

     23   P      57             0.1410000    1.000000000000

 H         

     24   S      58            13.0100000    0.033498726390
     24   S      59             1.9620000    0.234800801174
     24   S      60             0.4446000    0.813682957883

     25   S      61             0.1220000    1.000000000000

     26   P      62             0.7270000    1.000000000000

     27   S      63             0.0297400    1.000000000000

     28   P      64             0.1410000    1.000000000000

 H         

     29   S      65            13.0100000    0.033498726390
     29   S      66             1.9620000    0.234800801174
     29   S      67             0.4446000    0.813682957883

     30   S      68             0.1220000    1.000000000000

     31   P      69             0.7270000    1.000000000000

     32   S      70             0.0297400    1.000000000000

     33   P      71             0.1410000    1.000000000000

 C         

     34   S      72          6665.0000000    0.000691583963
     34   S      73          1000.0000000    0.005325796153
     34   S      74           228.0000000    0.027060721042
     34   S      75            64.7100000    0.101656846141
     34   S      76            21.0600000    0.274574823617
     34   S      77             7.4950000    0.448294318924
     34   S      78             2.7970000    0.284902610715
     34   S      79             0.5215000    0.015194859206

     35   S      80          6665.0000000   -0.000293269653
     35   S      81          1000.0000000   -0.002318035474
     35   S      82           228.0000000   -0.011499786039
     35   S      83            64.7100000   -0.046826727010
     35   S      84            21.0600000   -0.128466168750
     35   S      85             7.4950000   -0.301266272463
     35   S      86             2.7970000   -0.255630702330
     35   S      87             0.5215000    1.093793361012

     36   S      88             0.1596000    1.000000000000

     37   P      89             9.4390000    0.056979251590
     37   P      90             2.0020000    0.313207211501
     37   P      91             0.5456000    0.760376741738

     38   P      92             0.1517000    1.000000000000

     39   D      93             0.5500000    1.000000000000

     40   S      94             0.0469000    1.000000000000

     41   P      95             0.0404100    1.000000000000

     42   D      96             0.1510000    1.000000000000

 C         

     43   S      97          6665.0000000    0.000691583963
     43   S      98          1000.0000000    0.005325796153
     43   S      99           228.0000000    0.027060721042
     43   S     100            64.7100000    0.101656846141
     43   S     101            21.0600000    0.274574823617
     43   S     102             7.4950000    0.448294318924
     43   S     103             2.7970000    0.284902610715
     43   S     104             0.5215000    0.015194859206

     44   S     105          6665.0000000   -0.000293269653
     44   S     106          1000.0000000   -0.002318035474
     44   S     107           228.0000000   -0.011499786039
     44   S     108            64.7100000   -0.046826727010
     44   S     109            21.0600000   -0.128466168750
     44   S     110             7.4950000   -0.301266272463
     44   S     111             2.7970000   -0.255630702330
     44   S     112             0.5215000    1.093793361012

     45   S     113             0.1596000    1.000000000000

     46   P     114             9.4390000    0.056979251590
     46   P     115             2.0020000    0.313207211501
     46   P     116             0.5456000    0.760376741738

     47   P     117             0.1517000    1.000000000000

     48   D     118             0.5500000    1.000000000000

     49   S     119             0.0469000    1.000000000000

     50   P     120             0.0404100    1.000000000000

     51   D     121             0.1510000    1.000000000000

 H         

     52   S     122            13.0100000    0.033498726390
     52   S     123             1.9620000    0.234800801174
     52   S     124             0.4446000    0.813682957883

     53   S     125             0.1220000    1.000000000000

     54   P     126             0.7270000    1.000000000000

     55   S     127             0.0297400    1.000000000000

     56   P     128             0.1410000    1.000000000000

 H         

     57   S     129            13.0100000    0.033498726390
     57   S     130             1.9620000    0.234800801174
     57   S     131             0.4446000    0.813682957883

     58   S     132             0.1220000    1.000000000000

     59   P     133             0.7270000    1.000000000000

     60   S     134             0.0297400    1.000000000000

     61   P     135             0.1410000    1.000000000000

 H         

     62   S     136            13.0100000    0.033498726390
     62   S     137             1.9620000    0.234800801174
     62   S     138             0.4446000    0.813682957883

     63   S     139             0.1220000    1.000000000000

     64   P     140             0.7270000    1.000000000000

     65   S     141             0.0297400    1.000000000000

     66   P     142             0.1410000    1.000000000000

 TOTAL NUMBER OF BASIS SET SHELLS             =   66
 NUMBER OF CARTESIAN GAUSSIAN BASIS FUNCTIONS =  154
 NOTE: THIS RUN WILL RESTRICT THE MO VARIATION SPACE TO SPHERICAL HARMONICS.
 THE NUMBER OF ORBITALS KEPT IN THE VARIATIONAL SPACE WILL BE PRINTED LATER.
 NUMBER OF ELECTRONS                          =   30
 CHARGE OF MOLECULE                           =    0
 SPIN MULTIPLICITY                            =    1
 NUMBER OF OCCUPIED ORBITALS (ALPHA)          =   15
 NUMBER OF OCCUPIED ORBITALS (BETA )          =   15
 TOTAL NUMBER OF ATOMS                        =   10
 THE NUCLEAR REPULSION ENERGY IS      102.4044559683

 SELECTED MURRAY-HANDY-LAMING RADIAL GRID

 LEGACY BECKE'S FUZZY CELL METHOD

 SELECTED ORIGINAL BECKE'S PARTITION FUNCTION

     LEBEDEV GRID-BASED DFT OPTIONS
     ------------------------------
     DFTTYP=B3LYP   
     NRAD  =      96     NLEB  =     302
     NRAD0 =      24     NLEB0 =     110
     SWOFF =    5.00E-03 (PURE SCF -> DFT)
     SWITCH=    3.00E-04 (COARSE -> TIGHT GRID)
     THRESH=    0.00E+00 GTHRE=    1.00E+00

 GRIMME'S EMPIRICAL DISPERSION CORRECTION= F

     $CONTRL OPTIONS
     ---------------
 SCFTYP=UHF          RUNTYP=LMOEDA       EXETYP=RUN     
 MPLEVL=       0     CITYP =NONE         CCTYP =NONE         VBTYP =NONE    
 DFTTYP=B3LYP        TDDFT =NONE    
 MULT  =       1     ICHARG=       0     NZVAR =       0     COORD =UNIQUE  
 PP    =NONE         RELWFN=NONE         LOCAL =NONE         NUMGRD=       F
 ISPHER=       1     NOSYM =       0     MAXIT =      30     UNITS =ANGS    
 PLTORB=       F     MOLPLT=       F     AIMPAC=       F     FRIEND=        
 NPRINT=       7     IREST =       0     GEOM  =INPUT   
 NORMF =       0     NORMP =       0     ITOL  =      20     ICUT  =       9
 INTTYP=BEST         GRDTYP=BEST         QMTTOL= 1.0E-06

     $SYSTEM OPTIONS
     ---------------
  REPLICATED MEMORY=   150000000 WORDS (ON EVERY NODE).
 DISTRIBUTED MEMDDI=         150 MILLION WORDS IN AGGREGATE,
 MEMDDI DISTRIBUTED OVER  16 PROCESSORS IS     9375000 WORDS/PROCESSOR.
 TOTAL MEMORY REQUESTED ON EACH PROCESSOR=   159375000 WORDS.
 TIMLIM=      525600.00 MINUTES, OR     365.0 DAYS.
 PARALL= T  BALTYP=  DLB     KDIAG=    0  COREFL= F
 MXSEQ2=     300 MXSEQ3=     150  mem10=         0  mem22=         0

 Using Gaussians for PCM contribution to MEP, params: 0.10000E+01 0.10000E-07

          ----------------
          PROPERTIES INPUT
          ----------------

     MOMENTS            FIELD           POTENTIAL          DENSITY
 IEMOM =       1   IEFLD =       0   IEPOT =       0   IEDEN =       0
 WHERE =COMASS     WHERE =NUCLEI     WHERE =NUCLEI     WHERE =NUCLEI  
 OUTPUT=BOTH       OUTPUT=BOTH       OUTPUT=BOTH       OUTPUT=BOTH    
 IEMINT=       0   IEFINT=       0                     IEDINT=       0
                                                       MORB  =       0
          EXTRAPOLATION IN EFFECT
          DIIS IN EFFECT
          DIIS or SOSCF will be reset if energy rises
 ORBITAL PRINTING OPTION: NPREO=     1   154     2     1

     -------------------------------
     INTEGRAL TRANSFORMATION OPTIONS
     -------------------------------
     NWORD  =            0
     CUTOFF = 1.0E-09     MPTRAN =       0
     DIRTRF =       F     AOINTS =DUP     

          -----------------------------
          LOCALIZATION INPUT PARAMETERS
          -----------------------------
           LOCAL=RUEDNBRG      NOUTA=       0
          PRTLOC=       F      NOUTB=       0
          MAXLOC=     250     CVGLOC=1.00E-06
           FCORE=       F     SYMLOC=       F
          MOIDON=       F     EDCOMP=       F
          DIPDCM=       F      NPROT=       0
          QADDCM=       F     DEPRNT=       F
          POLNUM=       F     ORIENT=       F
          POLDYN=       F      VMTOL=1.50E-01
          NPRDTL=       2     IBOYAL=       1

          ----------------------
          INTEGRAL INPUT OPTIONS
          ----------------------
 NOPK  =       1 NORDER=       0 SCHWRZ=       T

     ------------------------------------------
     THE POINT GROUP IS C1 , NAXIS= 0, ORDER= 1
     ------------------------------------------

 -- VARIATIONAL SPACE WILL BE RESTRICTED TO PURE SPHERICAL HARMONICS ONLY --
 AFTER EXCLUDING CONTAMINANT COMBINATIONS FROM THE CARTESIAN GAUSSIAN BASIS
 SET, THE NUMBER OF SPHERICAL HARMONICS KEPT IN THE VARIATION SPACE IS  146

     DIMENSIONS OF THE SYMMETRY SUBSPACES ARE
 A   =  146

 ..... DONE SETTING UP THE RUN .....
 CPU     0: STEP CPU TIME=     0.03 TOTAL CPU TIME=          0.0 (      0.0 MIN)
 TOTAL WALL CLOCK TIME=          0.0 SECONDS, CPU UTILIZATION IS    82.44%

          --------------
          GKSEDA OPTIONS
          --------------
          NMOL  =       2          EDATYP=GKS     
          SUPBAS=       T          RDVECM=       F          ITRTN =       T

 *******************
 GKSEDA IS BEGINNING
 *******************

 NMOL =  2

 MONOMER     ATOM   CHARGE ELECTRON MULTIPLE
 -------------------------------------------
       1        5        0       15        2
       2        5        0       15       -2
 -------------------------------------------

 SAVING MOL INFO REQUIRES    598670 WORDS OF MEMORY.

          ********************
          1 ELECTRON INTEGRALS
          ********************
 ...... END OF ONE-ELECTRON INTEGRALS ......
 CPU     0: STEP CPU TIME=     0.01 TOTAL CPU TIME=          0.0 (      0.0 MIN)
 TOTAL WALL CLOCK TIME=          0.0 SECONDS, CPU UTILIZATION IS    84.03%

          -------------
          GUESS OPTIONS
          -------------
          GUESS =HUCKEL            NORB  =       0          NORDER=       0
          MIX   =       F          PRTMO =       F          PUNMO =       F
          TOLZ  = 1.0E-08          TOLE  = 1.0E-05
          SYMDEN=       F          PURIFY=       F

 INITIAL GUESS ORBITALS GENERATED BY HUCKEL   ROUTINE.
 HUCKEL GUESS REQUIRES    180842 WORDS.

 STATISTICS FOR GENERATION OF SYMMETRY ORBITAL -Q- MATRIX
 NUMBER OF CARTESIAN ATOMIC ORBITALS=        154
 NUMBER OF SPHERICAL CONTAMINANTS DROPPED=     8
 NUMBER OF LINEARLY DEPENDENT MOS DROPPED=     0
 TOTAL NUMBER OF MOS IN VARIATION SPACE=     146

 SYMMETRIES FOR INITIAL GUESS ORBITALS FOLLOW.  ALPHA SET(S).
    15 ORBITALS ARE OCCUPIED (    4 CORE ORBITALS).
     5=A        6=A        7=A        8=A        9=A       10=A       11=A   
    12=A       13=A       14=A       15=A       16=A       17=A       18=A   
    19=A       20=A       21=A       22=A       23=A       24=A       25=A   

 SYMMETRIES FOR INITIAL GUESS ORBITALS FOLLOW.   BETA SET(S).
    15 ORBITALS ARE OCCUPIED (    4 CORE ORBITALS).
     5=A        6=A        7=A        8=A        9=A       10=A       11=A   
    12=A       13=A       14=A       15=A       16=A       17=A       18=A   
    19=A       20=A       21=A       22=A       23=A       24=A       25=A   
 ...... END OF INITIAL ORBITAL SELECTION ......
 CPU     0: STEP CPU TIME=     0.01 TOTAL CPU TIME=          0.1 (      0.0 MIN)
 TOTAL WALL CLOCK TIME=          0.1 SECONDS, CPU UTILIZATION IS    87.91%

          -------------------------
          MONOMER  1 WITH OWN BASIS
          -------------------------

     ------------------------------------------
     THE POINT GROUP IS C1 , NAXIS= 0, ORDER= 1
     ------------------------------------------

 -- VARIATIONAL SPACE WILL BE RESTRICTED TO PURE SPHERICAL HARMONICS ONLY --
 AFTER EXCLUDING CONTAMINANT COMBINATIONS FROM THE CARTESIAN GAUSSIAN BASIS
 SET, THE NUMBER OF SPHERICAL HARMONICS KEPT IN THE VARIATION SPACE IS   73

     DIMENSIONS OF THE SYMMETRY SUBSPACES ARE
 A   =   73

          ********************
          1 ELECTRON INTEGRALS
          ********************
 ...... END OF ONE-ELECTRON INTEGRALS ......
 CPU     0: STEP CPU TIME=     0.01 TOTAL CPU TIME=          0.1 (      0.0 MIN)
 TOTAL WALL CLOCK TIME=          0.1 SECONDS, CPU UTILIZATION IS    88.70%

          -------------
          GUESS OPTIONS
          -------------
          GUESS =HUCKEL            NORB  =       0          NORDER=       0
          MIX   =       F          PRTMO =       F          PUNMO =       F
          TOLZ  = 1.0E-08          TOLE  = 1.0E-05
          SYMDEN=       F          PURIFY=       F

 INITIAL GUESS ORBITALS GENERATED BY HUCKEL   ROUTINE.
 HUCKEL GUESS REQUIRES     47410 WORDS.

 STATISTICS FOR GENERATION OF SYMMETRY ORBITAL -Q- MATRIX
 NUMBER OF CARTESIAN ATOMIC ORBITALS=         77
 NUMBER OF SPHERICAL CONTAMINANTS DROPPED=     4
 NUMBER OF LINEARLY DEPENDENT MOS DROPPED=     0
 TOTAL NUMBER OF MOS IN VARIATION SPACE=      73

 SYMMETRIES FOR INITIAL GUESS ORBITALS FOLLOW.  ALPHA SET(S).
     8 ORBITALS ARE OCCUPIED (    2 CORE ORBITALS).
     3=A        4=A        5=A        6=A        7=A        8=A        9=A   
    10=A       11=A       12=A       13=A       14=A       15=A       16=A   
    17=A       18=A   

 SYMMETRIES FOR INITIAL GUESS ORBITALS FOLLOW.   BETA SET(S).
     7 ORBITALS ARE OCCUPIED (    2 CORE ORBITALS).
     3=A        4=A        5=A        6=A        7=A        8=A        9=A   
    10=A       11=A       12=A       13=A       14=A       15=A       16=A   
    17=A   
 ...... END OF INITIAL ORBITAL SELECTION ......
 CPU     0: STEP CPU TIME=     0.00 TOTAL CPU TIME=          0.1 (      0.0 MIN)
 TOTAL WALL CLOCK TIME=          0.1 SECONDS, CPU UTILIZATION IS    89.17%

                    ----------------------
                    AO INTEGRAL TECHNOLOGY
                    ----------------------
     S,P,L SHELL ROTATED AXIS INTEGRALS, REPROGRAMMED BY
        KAZUYA ISHIMURA (IMS) AND JOSE SIERRA (SYNSTAR).
     S,P,D,L SHELL ROTATED AXIS INTEGRALS PROGRAMMED BY
        KAZUYA ISHIMURA (INSTITUTE FOR MOLECULAR SCIENCE).
     S,P,D,F,G SHELL TO TOTAL QUARTET ANGULAR MOMENTUM SUM 5,
        ERIC PROGRAM BY GRAHAM FLETCHER (ELORET AND NASA ADVANCED
        SUPERCOMPUTING DIVISION, AMES RESEARCH CENTER).
     S,P,D,F,G,L SHELL GENERAL RYS QUADRATURE PROGRAMMED BY
        MICHEL DUPUIS (PACIFIC NORTHWEST NATIONAL LABORATORY).

          --------------------
          2 ELECTRON INTEGRALS
          --------------------

 THE -PK- OPTION IS OFF, THE INTEGRALS ARE NOT IN SUPERMATRIX FORM.
 STORING   15000 INTEGRALS/RECORD ON DISK, USING 12 BYTES/INTEGRAL.
 TWO ELECTRON INTEGRAL EVALUATION REQUIRES   90957 WORDS OF MEMORY.
 SCHWARZ INEQUALITY OVERHEAD:      3003 INTEGRALS, T=        0.00
 II,JST,KST,LST =  1  1  1  1 NREC =         1 INTLOC =    1
 II,JST,KST,LST =  2  1  1  1 NREC =         1 INTLOC =    1
 II,JST,KST,LST =  3  1  1  1 NREC =         1 INTLOC =    1
 II,JST,KST,LST =  4  1  1  1 NREC =         1 INTLOC =    1
 II,JST,KST,LST =  5  1  1  1 NREC =         1 INTLOC =    1
 II,JST,KST,LST =  6  1  1  1 NREC =         1 INTLOC =    1
 II,JST,KST,LST =  7  1  1  1 NREC =         1 INTLOC =    4
 II,JST,KST,LST =  8  1  1  1 NREC =         1 INTLOC =  250
 II,JST,KST,LST =  9  1  1  1 NREC =         1 INTLOC =  250
 II,JST,KST,LST = 10  1  1  1 NREC =         1 INTLOC =  250
 II,JST,KST,LST = 11  1  1  1 NREC =         1 INTLOC =  676
 II,JST,KST,LST = 12  1  1  1 NREC =         1 INTLOC =  676
 II,JST,KST,LST = 13  1  1  1 NREC =         1 INTLOC = 1102
 II,JST,KST,LST = 14  1  1  1 NREC =         1 INTLOC = 1950
 II,JST,KST,LST = 15  1  1  1 NREC =         1 INTLOC = 1950
 II,JST,KST,LST = 16  1  1  1 NREC =         1 INTLOC = 8167
 II,JST,KST,LST = 17  1  1  1 NREC =         1 INTLOC = 8167
 II,JST,KST,LST = 18  1  1  1 NREC =         1 INTLOC = 8167
 II,JST,KST,LST = 19  1  1  1 NREC =         1 INTLOC = 8167
 II,JST,KST,LST = 20  1  1  1 NREC =         1 INTLOC =13378
 II,JST,KST,LST = 21  1  1  1 NREC =         3 INTLOC =  839
 II,JST,KST,LST = 22  1  1  1 NREC =         4 INTLOC =  401
 II,JST,KST,LST = 23  1  1  1 NREC =         4 INTLOC =12954
 II,JST,KST,LST = 24  1  1  1 NREC =         6 INTLOC =12033
 II,JST,KST,LST = 25  1  1  1 NREC =         7 INTLOC = 9602
 II,JST,KST,LST = 26  1  1  1 NREC =         9 INTLOC =  953
 II,JST,KST,LST = 27  1  1  1 NREC =         9 INTLOC =13042
 II,JST,KST,LST = 28  1  1  1 NREC =        11 INTLOC =14287
 II,JST,KST,LST = 29  1  1  1 NREC =        13 INTLOC =  925
 II,JST,KST,LST = 30  1  1  1 NREC =        14 INTLOC = 6113
 II,JST,KST,LST = 31  1  1  1 NREC =        14 INTLOC =11457
 II,JST,KST,LST = 32  1  1  1 NREC =        16 INTLOC = 9717
 II,JST,KST,LST = 33  1  1  1 NREC =        17 INTLOC =11424
 SCHWARZ INEQUALITY TEST SKIPPED           0 INTEGRAL BLOCKS.
 TOTAL NUMBER OF NONZERO TWO-ELECTRON INTEGRALS =             3897172
        269 INTEGRAL RECORDS WERE STORED ON DISK FILE  8.
  ...... END OF TWO-ELECTRON INTEGRALS .....
 CPU     0: STEP CPU TIME=     0.03 TOTAL CPU TIME=          0.1 (      0.0 MIN)
 TOTAL WALL CLOCK TIME=          0.1 SECONDS, CPU UTILIZATION IS    89.60%

          ---------------------------
              U-B3LYP SCF CALCULATION
          ---------------------------

     NUCLEAR ENERGY =        27.8975667689
     MAXIT = 30     NPUNCH=  2     MULT=  2
     EXTRAP=T  DAMP=F  SHIFT=F  RSTRCT=F  DIIS=T  SOSCF=T
         DENSITY MATRIX CONVERGENCE THRESHOLD=  1.00E-05
     COARSE -> FINE DFT GRID SWITCH THRESHOLD=  3.00E-04 (SWITCH IN $DFT)
                   HF -> DFT SWITCH THRESHOLD=  5.00E-03 (SWOFF IN $DFT)
     SOSCF WILL OPTIMIZE     520 ALPHA AND     462 BETA ROTATION ANGLES.
     SOGTOL= 2.500E-01
     MEMORY REQUIRED FOR UHF/ROHF ITERS=    298732 WORDS.

     EXCHANGE FUNCTIONAL   =B88&HFX   
     CORRELATION FUNCTIONAL=LYP88&VWN5
     DFT THRESHOLD         =.690E-08
     GRID CHANGE THRESHOLD =.300E-03
 FOR AN EULER-MACLAURIN QUADRATURE USING  96 RADIAL POINTS:
 SMALLEST GAUSSIAN PRIMITIVE EXPONENT=        0.0297400000 OF TYPE -S-
 ON ATOM NUMBER   3 HAS RADIAL NORMALIZATION=  1.000000
  LARGEST GAUSSIAN PRIMITIVE EXPONENT=     6665.0000000000 OF TYPE -S-
 ON ATOM NUMBER   1 HAS RADIAL NORMALIZATION=  1.000000
 DFT IS SWITCHED OFF, PERFORMING PURE SCF UNTIL SWOFF THRESHOLD IS REACHED.

 ITER EX      TOTAL ENERGY        E CHANGE  DENSITY CHANGE    DIIS ERROR
          * * *   INITIATING DIIS PROCEDURE   * * *
   1  0      -77.1747438704   -77.1747438704   0.501710398   0.357476278
   2  1      -77.3688893167    -0.1941454463   0.155560150   0.054213256
   3  2      -77.3849374729    -0.0160481562   0.031258047   0.025921817
   4  3      -77.3893328482    -0.0043953753   0.022039845   0.011230641
   5  4      -77.3907142089    -0.0013813607   0.012883076   0.008519107
   6  5      -77.3913569966    -0.0006427877   0.024765151   0.008501846
   7  6      -77.3924286873    -0.0010716907   0.066139313   0.008223357
   8  7      -77.3948188767    -0.0023901894   0.103553073   0.006214596
   9  8      -77.3962578898    -0.0014390131   0.058035136   0.001643507
  10  9      -77.3959100247     0.0003478651   0.038865051   0.003685613
  11 10      -77.3963058182    -0.0003957935   0.004015651   0.000520097
 CONVERGED TO SWOFF, SO DFT CALCULATION IS NOW SWITCHED ON.
          * * *   INITIATING DIIS PROCEDURE   * * *
  12 11      -77.8305528257    -0.4342470075   0.394187661   0.062446298
  13 12      -77.8469456572    -0.0163928315   0.061972218   0.016542912
  14 13      -77.8495593293    -0.0026136722   0.024616946   0.012025471
  15 14      -77.8509981696    -0.0014388402   0.049804317   0.007285771
  16 15      -77.8519529831    -0.0009548135   0.008975767   0.003168292
  17 16      -77.8520268622    -0.0000738791   0.005713923   0.001460315
  18 17      -77.8520462828    -0.0000194207   0.001964633   0.000282278
         SWDIIS THRESHOLD HAS BEEN REACHED: SWITCHING DIIS OFF.
          ---------------START SECOND ORDER SCF---------------
  19 18      -77.8520473993    -0.0000011165   0.000136107   0.000022630
  20 19      -77.8520474109    -0.0000000116   0.000153692   0.000023247
  21 20      -77.8520474118    -0.0000000008   0.000065021   0.000020057
  22 21      -77.8520474156    -0.0000000038   0.000008516   0.000002249
  23 22      -77.8520474157    -0.0000000001   0.000012890   0.000001834

          ----------------
          ENERGY CONVERGED
          ----------------
     TIME TO FORM FOCK OPERATORS=       1.2 SECONDS (       0.1 SEC/ITER)
     TIME TO SOLVE SCF EQUATIONS=       0.1 SECONDS (       0.0 SEC/ITER)

 FINAL U-B3LYP ENERGY IS      -77.8520474157 AFTER  23 ITERATIONS
 DFT EXCHANGE + CORRELATION ENERGY =        -9.5256552378
 TOTAL ELECTRON NUMBER             =        14.9999914470

          --------------------
          SPIN SZ   =    0.500
          S-SQUARED =    0.764
          --------------------

  ----- ALPHA SET ----- 

          ------------
          EIGENVECTORS
          ------------

                      1          2          3          4          5
                  -10.2288   -10.2016    -0.7675    -0.5778    -0.4645
                     A          A          A          A          A   
    1  C  1  S    0.012362   1.009653  -0.019740   0.011346  -0.002211
    2  C  1  S   -0.001525   0.022172   0.316342  -0.226993   0.000738
    3  C  1  S    0.040483  -0.073448   0.095158  -0.325331  -0.033548
    4  C  1  X    0.000001   0.000012   0.000104  -0.001275  -0.004363
    5  C  1  Y   -0.000024  -0.000007   0.007927   0.031692   0.340770
    6  C  1  Z   -0.001013  -0.000338   0.111273   0.207596  -0.209924
    7  C  1  X    0.000014  -0.000031  -0.000490  -0.000153  -0.000095
    8  C  1  Y   -0.001370  -0.000304   0.023898   0.027380  -0.015589
    9  C  1  Z    0.038765  -0.009033  -0.029943  -0.242651   0.040741
   10  C  1 XX    0.000218  -0.001629  -0.006285   0.001483  -0.001745
   11  C  1 YY    0.000858   0.000829  -0.007620  -0.011312   0.008601
   12  C  1 ZZ   -0.001076   0.000800   0.013906   0.009829  -0.006856
   13  C  1 XY   -0.000010  -0.000038   0.000018   0.000208  -0.000050
   14  C  1 XZ   -0.000009  -0.000008   0.000019  -0.000055   0.000012
   15  C  1 YZ    0.000475   0.000059   0.000201   0.002324  -0.005958
   16  C  1  S    0.015353  -0.033980   0.016643   0.138919  -0.060977
   17  C  1  X   -0.000023  -0.000023   0.000079  -0.000131   0.000728
   18  C  1  Y    0.000760   0.000817  -0.003721   0.008800  -0.058552
   19  C  1  Z    0.006239  -0.003695  -0.001952   0.011934  -0.009149
   20  C  1 XX   -0.002131   0.004876   0.006373  -0.007217  -0.006436
   21  C  1 YY   -0.004467   0.001519  -0.007923   0.105986  -0.045187
   22  C  1 ZZ    0.006599  -0.006395   0.001549  -0.098769   0.051623
   23  C  1 XY    0.000040   0.000054   0.000122  -0.001886   0.000106
   24  C  1 XZ    0.000063   0.000038  -0.000404  -0.000105  -0.001436
   25  C  1 YZ   -0.003136  -0.001100   0.024637   0.020113   0.104684
   26  C  2  S    1.009991  -0.013955  -0.017220  -0.006470  -0.000309
   27  C  2  S    0.022745  -0.001385   0.307189   0.268644  -0.070549
   28  C  2  S   -0.090135   0.024693   0.253791   0.494449  -0.242926
   29  C  2  X   -0.000025  -0.000001  -0.000616  -0.002433  -0.004200
   30  C  2  Y    0.000899   0.000104   0.024418   0.097736   0.255871
   31  C  2  Z   -0.000228   0.000923  -0.128827   0.119010   0.163699
   32  C  2  X    0.000077   0.000015   0.001166   0.001380   0.000113
   33  C  2  Y   -0.003192  -0.001124  -0.057632  -0.093597   0.008488
   34  C  2  Z    0.030865  -0.016932  -0.091643  -0.220639   0.063639
   35  C  2 XX   -0.000857   0.000676  -0.011456  -0.001410  -0.000484
   36  C  2 YY    0.000516   0.000641  -0.003952   0.009829   0.005759
   37  C  2 ZZ    0.000341  -0.001317   0.015408  -0.008419  -0.005275
   38  C  2 XY   -0.000030  -0.000001  -0.000088  -0.000220  -0.000203
   39  C  2 XZ   -0.000021  -0.000003   0.000093   0.000011   0.000059
   40  C  2 YZ    0.000887   0.000043  -0.006180  -0.001653  -0.009704
   41  C  2  S   -0.029133   0.019833  -0.019053  -0.118918   0.022950
   42  C  2  X    0.000030   0.000029   0.000028   0.000552  -0.000193
   43  C  2  Y   -0.001401  -0.001337  -0.000312  -0.026766   0.018104
   44  C  2  Z    0.004265  -0.005767   0.006671   0.005072  -0.013464
   45  C  2 XX    0.006000  -0.001054  -0.006792   0.006326   0.001175
   46  C  2 YY    0.004305  -0.001756  -0.017774  -0.059835  -0.008268
   47  C  2 ZZ   -0.010305   0.002810   0.024566   0.053509   0.007093
   48  C  2 XY    0.000037   0.000014   0.000420   0.001412   0.000514
   49  C  2 XZ    0.000090   0.000029  -0.000143   0.000524  -0.000090
   50  C  2 YZ   -0.004259  -0.001173   0.008647  -0.021833   0.013287
   51  H  3  S   -0.000656  -0.000101   0.124006   0.258626   0.194610
   52  H  3  S    0.021322   0.007222   0.065110   0.272259   0.108427
   53  H  3  X   -0.000036   0.000002   0.000267   0.000385   0.000182
   54  H  3  Y    0.001717  -0.000007  -0.012765  -0.016831  -0.005908
   55  H  3  Z    0.000732   0.000180  -0.011289  -0.009965  -0.005271
   56  H  3  S    0.001282   0.001932   0.003540   0.025788   0.010450
   57  H  3  X    0.000165   0.000048   0.000105   0.001161   0.000042
   58  H  3  Y   -0.007694  -0.002232  -0.007809  -0.042336  -0.011871
   59  H  3  Z   -0.002006  -0.000909  -0.017519  -0.029548  -0.010715
   60  H  4  S   -0.000343  -0.000855   0.116404  -0.229738  -0.140144
   61  H  4  S    0.017766   0.021878  -0.011093  -0.219141  -0.196569
   62  H  4  X    0.000004   0.000027  -0.000234   0.000260   0.000022
   63  H  4  Y   -0.000208  -0.001549   0.014350  -0.016898   0.000666
   64  H  4  Z   -0.000614  -0.001022   0.012574  -0.005437  -0.009984
   65  H  4  S    0.001779   0.001999  -0.000001  -0.012943  -0.041505
   66  H  4  X   -0.000079  -0.000111   0.000119   0.000505   0.000689
   67  H  4  Y    0.004837   0.006780  -0.009290  -0.020758  -0.049162
   68  H  4  Z    0.002449   0.003024   0.008658  -0.034315   0.011492
   69  H  5  S   -0.000192  -0.000909   0.126350  -0.202822   0.340846
   70  H  5  S    0.009351   0.018955   0.014882  -0.224809   0.434914
   71  H  5  X    0.000001  -0.000013   0.000139  -0.000165   0.000050
   72  H  5  Y   -0.000078   0.001517  -0.014532   0.016642  -0.010238
   73  H  5  Z   -0.000418  -0.000939   0.011303  -0.004887   0.005049
   74  H  5  S    0.001715   0.001137   0.002255  -0.013589   0.045262
   75  H  5  X    0.000023   0.000058   0.000031   0.000191   0.000693
   76  H  5  Y   -0.002379  -0.006005   0.000497   0.020066  -0.072584
   77  H  5  Z    0.001975   0.002945  -0.001986  -0.053631   0.040809

                      6          7          8          9         10
                   -0.4139    -0.2853    -0.2731    -0.0192    -0.0019
                     A          A          A          A          A   
    1  C  1  S    0.000033   0.000013   0.000572   0.000040  -0.003003
    2  C  1  S   -0.036591  -0.002045   0.050423  -0.000453   0.084422
    3  C  1  S   -0.170154  -0.002051   0.022681  -0.001126   0.343863
    4  C  1  X    0.003359   0.392287   0.011467   0.403129  -0.000123
    5  C  1  Y   -0.255173   0.008273  -0.134957   0.005076   0.029859
    6  C  1  Z   -0.319658  -0.002691   0.113051   0.001252  -0.096259
    7  C  1  X   -0.001204   0.215912   0.005119   0.338643   0.000299
    8  C  1  Y    0.060905   0.001870   0.032440   0.004718   0.042426
    9  C  1  Z   -0.091390   0.001009  -0.022041   0.000811  -0.284056
   10  C  1 XX   -0.001169   0.000027   0.000509   0.000021   0.000942
   11  C  1 YY    0.010551   0.000015  -0.000745   0.000024  -0.002787
   12  C  1 ZZ   -0.009383  -0.000042   0.000236  -0.000045   0.001845
   13  C  1 XY   -0.000281   0.000640  -0.000070   0.000057   0.000066
   14  C  1 XZ   -0.000323   0.021734  -0.000025  -0.030153  -0.000039
   15  C  1 YZ    0.013725  -0.000550   0.040580  -0.000599   0.001447
   16  C  1  S   -0.038653  -0.005219   0.158839  -0.001348   1.298054
   17  C  1  X   -0.000712   0.028703   0.000549   0.567198   0.001876
   18  C  1  Y    0.051695   0.000002   0.019954   0.006905   0.037407
   19  C  1  Z   -0.014747  -0.001227   0.040471   0.000796  -0.298121
   20  C  1 XX    0.000003   0.000071  -0.005663   0.000029  -0.039415
   21  C  1 YY   -0.043874  -0.000847   0.029544  -0.000048   0.024739
   22  C  1 ZZ    0.043872   0.000776  -0.023882   0.000020   0.014675
   23  C  1 XY    0.000761   0.004542  -0.000258  -0.003278  -0.000898
   24  C  1 XZ    0.000527   0.003713   0.000581  -0.042057  -0.000809
   25  C  1 YZ   -0.052277   0.000751  -0.035051  -0.000134   0.027148
   26  C  2  S   -0.000867  -0.000004  -0.000747   0.000041  -0.002551
   27  C  2  S    0.031743   0.004578  -0.151320  -0.000502   0.056061
   28  C  2  S   -0.053638   0.008855  -0.311806  -0.001486   0.367028
   29  C  2  X   -0.001979   0.442680   0.003741  -0.411591  -0.000989
   30  C  2  Y    0.034712  -0.003995   0.473792  -0.007531   0.043899
   31  C  2  Z    0.374630   0.007438  -0.256591  -0.001274   0.082653
   32  C  2  X    0.001208   0.255970   0.003192  -0.348881  -0.002156
   33  C  2  Y   -0.066399  -0.000935   0.241776  -0.007136   0.098596
   34  C  2  Z    0.044767   0.006154  -0.223115  -0.000895  -0.007949
   35  C  2 XX   -0.001605   0.000038  -0.004786   0.000046  -0.001696
   36  C  2 YY    0.011065   0.000065   0.000041   0.000003  -0.004884
   37  C  2 ZZ   -0.009461  -0.000102   0.004745  -0.000048   0.006580
   38  C  2 XY   -0.000298  -0.000530  -0.000264  -0.000071   0.000061
   39  C  2 XZ   -0.000341  -0.020466  -0.000794  -0.032174   0.000024
   40  C  2 YZ    0.017759  -0.000752   0.020418  -0.000335  -0.003649
   41  C  2  S   -0.014176   0.007593  -0.262873  -0.001949   0.871103
   42  C  2  X    0.000658   0.031310   0.000544  -0.518919  -0.004927
   43  C  2  Y   -0.036053   0.000048   0.023870  -0.008009   0.190698
   44  C  2  Z   -0.015308  -0.000436   0.007460  -0.000781   0.147721
   45  C  2 XX   -0.004058  -0.000234   0.007043  -0.000237  -0.039532
   46  C  2 YY   -0.037016   0.000656  -0.023187   0.000190  -0.012710
   47  C  2 ZZ    0.041074  -0.000422   0.016144   0.000047   0.052242
   48  C  2 XY    0.000901  -0.001352   0.000441   0.008368  -0.000762
   49  C  2 XZ    0.000212  -0.007183   0.000040  -0.037734  -0.000766
   50  C  2 YZ   -0.017259   0.000107  -0.011923  -0.000139   0.033163
   51  H  3  S    0.232861  -0.004800   0.196192   0.001585   0.005097
   52  H  3  S    0.277934  -0.006361   0.250468   0.001841  -0.357665
   53  H  3  X    0.000179   0.015682   0.000366  -0.020946   0.000214
   54  H  3  Y   -0.009279   0.000150   0.006773  -0.000376  -0.010700
   55  H  3  Z    0.001075   0.000463  -0.015958  -0.000055  -0.001542
   56  H  3  S    0.036840  -0.000487   0.027590   0.000662  -0.898133
   57  H  3  X    0.000830   0.015404   0.001056  -0.053603  -0.000705
   58  H  3  Y   -0.038773   0.000789  -0.017966  -0.000612   0.031442
   59  H  3  Z   -0.036309   0.000924  -0.029298  -0.000056   0.032767
   60  H  4  S    0.324890  -0.002757   0.146219   0.000101   0.007008
   61  H  4  S    0.391750  -0.003529   0.193807  -0.000510  -0.404947
   62  H  4  X   -0.000197   0.014424   0.000367   0.021827  -0.000141
   63  H  4  Y    0.009591   0.000240  -0.000879   0.000318   0.009641
   64  H  4  Z    0.003198  -0.000097   0.005147   0.000096   0.002065
   65  H  4  S    0.036052  -0.000733   0.039922  -0.002138  -0.638153
   66  H  4  X   -0.001043   0.015700  -0.000062   0.045463   0.000970
   67  H  4  Y    0.055027  -0.000569   0.035537   0.000495  -0.063706
   68  H  4  Z    0.052601   0.000037   0.003358   0.000359  -0.017230
   69  H  5  S   -0.073450   0.005063  -0.210714   0.001461   0.003773
   70  H  5  S   -0.184736   0.008169  -0.338715   0.001857  -0.419012
   71  H  5  X    0.000060   0.014358   0.000388   0.022654   0.000133
   72  H  5  Y   -0.003105   0.000148  -0.000066   0.000288  -0.012249
   73  H  5  Z   -0.010907   0.000032   0.000285   0.000024   0.003411
   74  H  5  S   -0.043428   0.000669  -0.041744   0.002181  -1.138164
   75  H  5  X   -0.000440   0.012813   0.000027   0.052844  -0.000442
   76  H  5  Y    0.051202  -0.000857   0.043302   0.000961   0.036152
   77  H  5  Z   -0.005960   0.000806  -0.023169  -0.000289  -0.024478

                     11         12         13         14         15
                    0.0149     0.0250     0.0627     0.0711     0.0791
                     A          A          A          A          A   
    1  C  1  S   -0.001244   0.002402  -0.000339   0.007708   0.002888
    2  C  1  S    0.067504  -0.017289   0.000445  -0.012210   0.043898
    3  C  1  S    0.182860  -0.128753   0.017544  -0.391825   0.154034
    4  C  1  X    0.001129   0.001102  -0.172632  -0.005056   0.000186
    5  C  1  Y   -0.067839  -0.118317  -0.003031   0.037087   0.011940
    6  C  1  Z   -0.036536   0.005217  -0.000385   0.014054   0.054341
    7  C  1  X    0.002938   0.003834  -0.200079  -0.007804  -0.000665
    8  C  1  Y   -0.172415  -0.370733  -0.004892   0.102076   0.011039
    9  C  1  Z   -0.275307   0.106456  -0.002249   0.034356  -0.046767
   10  C  1 XX    0.002803  -0.003183   0.000138  -0.007386  -0.006818
   11  C  1 YY    0.004868  -0.001753  -0.000038   0.001102  -0.010948
   12  C  1 ZZ   -0.007671   0.004936  -0.000100   0.006283   0.017767
   13  C  1 XY   -0.000044  -0.000006   0.000853  -0.000116   0.000059
   14  C  1 XZ    0.000131   0.000053  -0.006132   0.000063  -0.000046
   15  C  1 YZ   -0.004830  -0.003847   0.000196  -0.010593   0.003112
   16  C  1  S    0.423724  -1.760234   0.363735 -10.895954   1.487170
   17  C  1  X    0.002551   0.025059   0.628455   0.016393   0.009455
   18  C  1  Y   -0.206339  -1.942195  -0.018785   0.439613  -0.490442
   19  C  1  Z   -0.537014  -0.375727   0.151217  -4.839429  -1.576237
   20  C  1 XX   -0.010839   0.016694  -0.001673   0.081446   0.022852
   21  C  1 YY    0.022384  -0.051813   0.004688  -0.154786   0.016906
   22  C  1 ZZ   -0.011545   0.035119  -0.003015   0.073340  -0.039759
   23  C  1 XY   -0.000976   0.000693  -0.024033   0.003250   0.000241
   24  C  1 XZ    0.000320  -0.001437  -0.041140  -0.001996  -0.002100
   25  C  1 YZ   -0.043032   0.100225  -0.000185   0.004092   0.113591
   26  C  2  S   -0.001285  -0.000777   0.000196  -0.005566   0.005531
   27  C  2  S   -0.072943   0.048126  -0.001217   0.040777   0.030899
   28  C  2  S   -0.227586   0.245643  -0.012748   0.431432   0.052948
   29  C  2  X    0.002004   0.000677  -0.127971  -0.001047  -0.000854
   30  C  2  Y   -0.085217  -0.045899   0.001247  -0.142467   0.061084
   31  C  2  Z   -0.027992   0.023572  -0.000325   0.004973  -0.075492
   32  C  2  X    0.004196  -0.001869  -0.145752  -0.006837   0.003594
   33  C  2  Y   -0.159317   0.094477  -0.008175   0.117493  -0.142224
   34  C  2  Z   -0.250926   0.151171  -0.001037   0.045453  -0.063871
   35  C  2 XX   -0.003395   0.001470   0.000163   0.001420  -0.010002
   36  C  2 YY   -0.001740   0.002168  -0.000213  -0.000540  -0.013507
   37  C  2 ZZ    0.005135  -0.003638   0.000051  -0.000880   0.023509
   38  C  2 XY   -0.000070   0.000022  -0.003930  -0.000065   0.000083
   39  C  2 XZ   -0.000141  -0.000064   0.013447   0.000297   0.000085
   40  C  2 YZ    0.008252   0.007560   0.000179   0.001921  -0.006741
   41  C  2  S   -0.481739   2.301067  -0.363759  11.196841  -0.285707
   42  C  2  X    0.012783  -0.015731   0.594762   0.014740  -0.003273
   43  C  2  Y   -0.553388   1.028098   0.019263   0.312022  -0.061056
   44  C  2  Z   -0.627227  -0.233740   0.140240  -4.206806   1.874701
   45  C  2 XX    0.007621  -0.041202   0.000863  -0.076592   0.063340
   46  C  2 YY   -0.063362   0.033503  -0.000828   0.085336  -0.027114
   47  C  2 ZZ    0.055741   0.007698  -0.000035  -0.008743  -0.036226
   48  C  2 XY    0.001828  -0.001564   0.039567  -0.002559   0.001658
   49  C  2 XZ    0.001316  -0.001685   0.015247  -0.000972  -0.001780
   50  C  2 YZ   -0.072324   0.085701  -0.001426   0.060481   0.082829
   51  H  3  S    0.016543   0.015146   0.000291  -0.022769  -0.017958
   52  H  3  S    0.669861  -0.551765   0.025541  -0.855864   0.214828
   53  H  3  X   -0.000219   0.000048   0.005782  -0.000051   0.000164
   54  H  3  Y    0.010301   0.000125  -0.000144   0.009802  -0.008487
   55  H  3  Z    0.008194  -0.000490  -0.000040   0.005323   0.007019
   56  H  3  S    2.553117  -1.442443  -0.107702   3.501910  -0.149354
   57  H  3  X    0.001802  -0.003132  -0.039073  -0.004751   0.001965
   58  H  3  Y   -0.082834   0.134133  -0.005711   0.138087  -0.085140
   59  H  3  Z   -0.021142   0.003902  -0.004832   0.141338  -0.096587
   60  H  4  S   -0.009625   0.012739   0.000390  -0.023211  -0.023633
   61  H  4  S   -0.449010  -0.451031  -0.023504   0.594368  -0.344687
   62  H  4  X   -0.000148  -0.000101   0.003544   0.000133  -0.000032
   63  H  4  Y    0.007608   0.002754  -0.000037  -0.000143   0.003637
   64  H  4  Z    0.007188   0.002820   0.000226  -0.010538  -0.011318
   65  H  4  S   -2.048325  -3.104891  -0.009885   0.445490  -1.132499
   66  H  4  X    0.000603   0.001073  -0.070400  -0.003216   0.000458
   67  H  4  Y   -0.060385  -0.052276  -0.002184   0.032418  -0.011572
   68  H  4  Z   -0.008378  -0.053030  -0.005173   0.146048   0.028895
   69  H  5  S    0.002902  -0.002479  -0.000613   0.025702  -0.038574
   70  H  5  S   -0.158579   0.861436  -0.016362   0.408961   0.094994
   71  H  5  X    0.000012  -0.000015   0.004215   0.000117   0.000084
   72  H  5  Y   -0.002461   0.004247   0.000085  -0.001321  -0.006303
   73  H  5  Z    0.003226  -0.007299   0.000111  -0.002356  -0.014272
   74  H  5  S   -0.483184   3.804663   0.125595  -4.365047   0.581938
   75  H  5  X   -0.000617   0.000277  -0.031148  -0.002275   0.000871
   76  H  5  Y    0.063675  -0.092410   0.000807  -0.002926  -0.090732
   77  H  5  Z    0.051528   0.068164  -0.004819   0.101231   0.038131

                     16         17         18         19         20
                    0.1118     0.1127     0.1167     0.1280     0.1459
                     A          A          A          A          A   
    1  C  1  S    0.006003  -0.000462  -0.038761  -0.014807  -0.015018
    2  C  1  S   -0.058823  -0.000452  -0.205020  -0.018857  -0.120282
    3  C  1  S   -1.027653   0.021235   0.308015   0.526896   0.537926
    4  C  1  X   -0.005510  -0.236933   0.002195  -0.001475  -0.001950
    5  C  1  Y    0.115122  -0.004651  -0.083840   0.237287   0.038954
    6  C  1  Z    0.002401   0.000183   0.121761   0.000937   0.130661
    7  C  1  X    0.003397  -0.187306   0.000926   0.015152  -0.002410
    8  C  1  Y   -0.429310   0.002742   0.293009  -0.927794  -0.171466
    9  C  1  Z   -1.245462   0.002723  -1.563878  -0.376945   1.555154
   10  C  1 XX    0.000870   0.000227   0.019964   0.016632  -0.039523
   11  C  1 YY   -0.000257  -0.000069   0.003807  -0.008181   0.048772
   12  C  1 ZZ   -0.000612  -0.000158  -0.023771  -0.008451  -0.009249
   13  C  1 XY   -0.000063  -0.001274   0.000206   0.000630  -0.001281
   14  C  1 XZ   -0.000333   0.006958   0.000130  -0.000173   0.000404
   15  C  1 YZ    0.024445  -0.000172  -0.007178   0.009085  -0.016642
   16  C  1  S   -5.780153   0.145096   5.066969   5.305447   0.151101
   17  C  1  X    0.039132   2.238579  -0.032367   0.073179   0.033508
   18  C  1  Y   -0.328744   0.035489   1.839032  -6.059401  -2.459396
   19  C  1  Z   -3.628976   0.047723  -1.949112   1.712254   0.560120
   20  C  1 XX    0.047953  -0.002625  -0.160801  -0.037018  -0.096399
   21  C  1 YY    0.184017   0.002465   0.344050   0.198949  -0.662095
   22  C  1 ZZ   -0.231970   0.000160  -0.183250  -0.161931   0.758494
   23  C  1 XY   -0.003100   0.034166  -0.007051  -0.006086   0.008106
   24  C  1 XZ    0.001461   0.057652  -0.002233  -0.004209  -0.007537
   25  C  1 YZ   -0.060955   0.001554  -0.013814   0.333394   0.321962
   26  C  2  S    0.008747  -0.000524  -0.035995  -0.026310   0.024588
   27  C  2  S    0.113186  -0.002511  -0.112189  -0.099419   0.012837
   28  C  2  S    0.491976   0.009369   1.291562   0.779830  -2.197634
   29  C  2  X   -0.000571   0.241898  -0.001431  -0.000844   0.002950
   30  C  2  Y    0.181582   0.001636  -0.006638   0.001161  -0.093157
   31  C  2  Z    0.060556  -0.000849  -0.084883  -0.008977  -0.067752
   32  C  2  X    0.012513   0.228879  -0.004023  -0.010339   0.012585
   33  C  2  Y   -0.367400   0.014020   0.131935   0.404020  -0.513446
   34  C  2  Z   -1.382357   0.013798  -0.904757   0.131471   1.094643
   35  C  2 XX   -0.004815  -0.000018   0.005388   0.013580  -0.011926
   36  C  2 YY    0.006013   0.000076   0.002479  -0.007877   0.017830
   37  C  2 ZZ   -0.001198  -0.000058  -0.007867  -0.005703  -0.005904
   38  C  2 XY   -0.000217   0.005950  -0.000067   0.000489  -0.000410
   39  C  2 XZ    0.000300   0.004173   0.000002   0.000206   0.000122
   40  C  2 YZ   -0.016249   0.000197   0.004059  -0.017121   0.001540
   41  C  2  S    4.125821  -0.045322   2.628251  -0.918502  -1.934236
   42  C  2  X    0.027590  -2.237740   0.026009  -0.055069  -0.013990
   43  C  2  Y   -2.802172   0.012975  -0.774504   3.525441   0.703124
   44  C  2  Z   -4.227604   0.065450  -0.154686   2.265328   1.080723
   45  C  2 XX    0.008814   0.000637  -0.128155  -0.071249  -0.023930
   46  C  2 YY   -0.309868   0.001965  -0.131330   0.041578   0.196401
   47  C  2 ZZ    0.301053  -0.002601   0.259485   0.029671  -0.172471
   48  C  2 XY    0.007207  -0.062191  -0.000363  -0.001843  -0.003134
   49  C  2 XZ    0.006381   0.085741  -0.002893  -0.003338  -0.004757
   50  C  2 YZ   -0.249428   0.005179   0.093962   0.145734   0.187909
   51  H  3  S   -0.021841  -0.000888   0.010744  -0.087686   0.103166
   52  H  3  S    2.270223  -0.047457  -0.523809  -1.796447   0.607043
   53  H  3  X    0.000418   0.000640  -0.000237  -0.000274   0.000171
   54  H  3  Y   -0.019907   0.000485   0.011367   0.011112  -0.008252
   55  H  3  Z   -0.012072   0.000306  -0.001887   0.015188  -0.005241
   56  H  3  S    6.199408  -0.101837   0.186920  -3.874996  -0.771042
   57  H  3  X    0.013963   0.119653  -0.005715  -0.006997  -0.001346
   58  H  3  Y   -0.619206   0.013336   0.243546   0.283857   0.216169
   59  H  3  Z   -0.388735   0.007459   0.064980   0.162494  -0.140390
   60  H  4  S    0.028458  -0.000662  -0.002564  -0.057781   0.098352
   61  H  4  S   -1.076797  -0.008631  -1.689427  -3.130373   0.715987
   62  H  4  X    0.000210   0.000274   0.000168   0.000353   0.000263
   63  H  4  Y   -0.010964   0.000022  -0.009576  -0.022711  -0.024088
   64  H  4  Z   -0.009110   0.000022  -0.001019  -0.011061   0.005803
   65  H  4  S   -3.922256   0.037207  -0.797226  -5.104531  -1.977115
   66  H  4  X    0.004254  -0.089920   0.008509   0.009098   0.003088
   67  H  4  Y   -0.330564  -0.001081  -0.443156  -0.567173  -0.473433
   68  H  4  Z   -0.307315  -0.000326  -0.210108  -0.570486   0.400679
   69  H  5  S   -0.020241  -0.000920  -0.017532  -0.022459   0.226033
   70  H  5  S   -0.022315  -0.023805  -2.726851   1.102197   2.833311
   71  H  5  X    0.000086  -0.001590  -0.000261   0.000234  -0.000227
   72  H  5  Y   -0.008273   0.000285   0.026069  -0.016477   0.011360
   73  H  5  Z    0.000843  -0.000107  -0.013588   0.014672  -0.000231
   74  H  5  S   -1.205162   0.004688  -4.237588   6.572136   2.821791
   75  H  5  X   -0.001082  -0.122155  -0.006179   0.007865  -0.006147
   76  H  5  Y   -0.010934   0.002111   0.669227  -0.422258   0.137072
   77  H  5  Z    0.107631  -0.004911  -0.419198   0.163441   0.435762

                     21         22         23         24         25
                    0.1685     0.1954     0.2193     0.2531     0.2859
                     A          A          A          A          A   
    1  C  1  S    0.049200   0.018703   0.000185  -0.005222  -0.009477
    2  C  1  S    0.158519   0.011972  -0.000324  -0.030270  -0.135264
    3  C  1  S   -2.140862  -0.554909   0.004399   0.751621   0.388830
    4  C  1  X   -0.000011  -0.001836   0.002067   0.001910  -0.000102
    5  C  1  Y   -0.066028   0.124256  -0.005724  -0.200515   0.009769
    6  C  1  Z   -0.062611  -0.019892  -0.000123   0.074876  -0.010827
    7  C  1  X   -0.002151  -0.014556  -0.071720   0.003163  -0.001431
    8  C  1  Y   -0.091902   0.605578  -0.015052  -0.220687   0.081294
    9  C  1  Z   -1.020836   1.224575   0.039514   0.760856   2.393548
   10  C  1 XX    0.014479  -0.024906  -0.001495  -0.015262  -0.023345
   11  C  1 YY   -0.005936   0.025748   0.001205   0.017528  -0.073818
   12  C  1 ZZ   -0.008543  -0.000842   0.000290  -0.002265   0.097162
   13  C  1 XY    0.000174  -0.001199   0.047418  -0.001397   0.000814
   14  C  1 XZ    0.000617  -0.000582  -0.002550   0.000315   0.000107
   15  C  1 YZ   -0.037726   0.037404  -0.000237  -0.031693  -0.013217
   16  C  1  S  -18.354350 -20.819515  -0.441542 -10.461825   2.258765
   17  C  1  X    0.005575  -0.031348   0.017866   0.022452   0.004278
   18  C  1  Y   -0.144805   2.489978  -0.001026  -1.739050  -0.948347
   19  C  1  Z   -6.226709  -5.881802  -0.124056  -2.310787   4.002716
   20  C  1 XX    0.179556   0.120260   0.004032   0.083860  -0.274663
   21  C  1 YY    0.142920  -0.559282  -0.012959  -0.213159   0.136771
   22  C  1 ZZ   -0.322475   0.439022   0.008926   0.129299   0.137893
   23  C  1 XY    0.000382   0.013019  -0.177255   0.010072  -0.008174
   24  C  1 XZ   -0.005349  -0.000181  -0.018238  -0.010547   0.001737
   25  C  1 YZ    0.447999  -0.199396   0.009822   0.863539   0.207399
   26  C  2  S   -0.045780  -0.017610  -0.000168  -0.004287   0.033875
   27  C  2  S   -0.198064  -0.048700  -0.000083  -0.000824   0.161384
   28  C  2  S    1.632511  -0.517346  -0.010519  -0.374029  -0.634678
   29  C  2  X    0.001619  -0.002297  -0.040590  -0.004208   0.002104
   30  C  2  Y   -0.038201   0.062413   0.005304   0.288775  -0.039386
   31  C  2  Z   -0.109364  -0.007179  -0.000579   0.021652  -0.249157
   32  C  2  X    0.001666  -0.013912  -0.230269  -0.006331  -0.009943
   33  C  2  Y   -0.150580   0.794467   0.023460   0.383230   0.423012
   34  C  2  Z   -1.214481   1.126672   0.037033   0.796845   1.549948
   35  C  2 XX   -0.016365   0.012206  -0.000386   0.014574   0.028891
   36  C  2 YY    0.011550   0.003499   0.000742  -0.021579   0.021110
   37  C  2 ZZ    0.004814  -0.015704  -0.000356   0.007005  -0.050001
   38  C  2 XY   -0.000833   0.000218   0.022153   0.000324  -0.000098
   39  C  2 XZ   -0.000263   0.000916   0.009191  -0.000213   0.000114
   40  C  2 YZ    0.017949  -0.052663   0.000149   0.010194  -0.007175
   41  C  2  S   18.590703  20.962227   0.448701  11.108419  -3.964203
   42  C  2  X    0.035474   0.016187  -0.169767  -0.023128  -0.019876
   43  C  2  Y   -1.686563  -1.011414  -0.002447   1.595387   1.279679
   44  C  2  Z   -6.155163  -5.238238  -0.124299  -2.446472   1.553921
   45  C  2 XX   -0.185169  -0.163545  -0.005445  -0.004242   0.183927
   46  C  2 YY   -0.167610   0.201360   0.013596   0.202850   0.178076
   47  C  2 ZZ    0.352779  -0.037815  -0.008150  -0.198607  -0.362003
   48  C  2 XY   -0.001606  -0.009028   0.256526  -0.010164   0.000015
   49  C  2 XZ   -0.004644  -0.007992  -0.114028  -0.006198  -0.002087
   50  C  2 YZ    0.337568   0.276727   0.009798   0.616918   0.323459
   51  H  3  S    0.177228  -0.180093  -0.002247  -0.091292  -0.023376
   52  H  3  S   -0.272685  -3.012699  -0.098282  -2.930146  -2.120794
   53  H  3  X   -0.000214   0.000010  -0.004137   0.000190  -0.000056
   54  H  3  Y    0.013071  -0.002267  -0.000046  -0.003217   0.002449
   55  H  3  Z    0.005054  -0.007304  -0.000111  -0.004626  -0.011816
   56  H  3  S    3.163423   1.714702   0.056342   0.185470  -2.655092
   57  H  3  X   -0.014598  -0.015847   0.525384  -0.009065  -0.022866
   58  H  3  Y    0.597232   0.627220   0.022339  -0.235993   0.703504
   59  H  3  Z    0.159891  -0.198112   0.007002   0.217033   0.252964
   60  H  4  S   -0.160280   0.217096   0.000077   0.013662   0.018050
   61  H  4  S   -0.605351   3.614903   0.013928  -0.759480   1.178734
   62  H  4  X   -0.000325   0.000039  -0.000658  -0.000014  -0.000208
   63  H  4  Y    0.020009   0.001682   0.000159   0.000032   0.015521
   64  H  4  Z    0.022151  -0.001594   0.000348   0.024639  -0.008811
   65  H  4  S   -2.018475   0.918879  -0.001059  -0.462438   0.917572
   66  H  4  X    0.000575   0.000110  -0.731397   0.023575  -0.008738
   67  H  4  Y    0.138941   0.193826  -0.004969  -0.335981   0.592966
   68  H  4  Z    0.221445   0.135107   0.005993   0.426273  -0.854249
   69  H  5  S    0.028547  -0.054646   0.002872   0.155975   0.046511
   70  H  5  S    1.532673   1.075582   0.084681   2.758010   1.892866
   71  H  5  X    0.000177  -0.000100   0.003166  -0.000268   0.000185
   72  H  5  Y   -0.015865   0.002065   0.000152   0.016450  -0.012688
   73  H  5  Z   -0.007837   0.016232  -0.000260  -0.017903  -0.017270
   74  H  5  S   -1.453611  -3.084483  -0.058827  -0.010805   2.673969
   75  H  5  X    0.001185  -0.007819   0.834327  -0.019693   0.011248
   76  H  5  Y   -0.473585  -0.047686   0.003473  -0.034262  -0.828495
   77  H  5  Z   -0.036552   0.604334   0.002736  -0.520819  -0.875725

                     26         27         28         29         30
                    0.3084     0.3151     0.3554     0.3771     0.4045
                     A          A          A          A          A   
    1  C  1  S   -0.000308  -0.030672   0.000308  -0.019840   0.040350
    2  C  1  S   -0.001509  -0.130330  -0.000163  -0.059317  -0.017042
    3  C  1  S    0.011809   1.464984  -0.018126   1.786250  -2.133307
    4  C  1  X   -0.059444   0.004248  -0.246864  -0.004748  -0.001005
    5  C  1  Y   -0.001906  -0.139754  -0.003773   0.279459   0.054829
    6  C  1  Z   -0.002805  -0.251693   0.000386  -0.075264  -0.000072
    7  C  1  X   -0.345582  -0.004338  -0.968865  -0.044469  -0.004028
    8  C  1  Y    0.003433   0.229524  -0.011163   3.096751   0.307819
    9  C  1  Z    0.034386   2.360516  -0.015432   1.765174  -1.823437
   10  C  1 XX    0.000664  -0.027218   0.000006  -0.013549   0.018470
   11  C  1 YY   -0.001399   0.000341   0.000167   0.006513   0.008544
   12  C  1 ZZ    0.000735   0.026877  -0.000173   0.007036  -0.027015
   13  C  1 XY   -0.034756  -0.000374   0.011110   0.000062   0.000152
   14  C  1 XZ   -0.018461   0.000603  -0.029557   0.000617   0.000162
   15  C  1 YZ   -0.000852  -0.023355  -0.000411  -0.050383  -0.010187
   16  C  1  S    0.135641   5.256539  -0.034153   0.115002  -6.303035
   17  C  1  X   -0.104301   0.054423  -1.114138  -0.065094  -0.025186
   18  C  1  Y   -0.047153  -3.641245  -0.024796   4.835696   1.602218
   19  C  1  Z    0.053354   1.544306  -0.002769  -0.046050  -1.795743
   20  C  1 XX   -0.017620  -0.085894   0.007602  -0.079571   0.530166
   21  C  1 YY    0.010434  -0.560613   0.004795  -0.337715   0.613775
   22  C  1 ZZ    0.007185   0.646507  -0.012397   0.417286  -1.143941
   23  C  1 XY    0.519090   0.003517  -0.227341   0.008024   0.004477
   24  C  1 XZ    0.007301  -0.019969   0.076962  -0.002484  -0.002172
   25  C  1 YZ    0.017651   1.058523   0.001717   0.313693   0.265035
   26  C  2  S    0.000542   0.028253  -0.000030   0.010543   0.032339
   27  C  2  S    0.002074   0.111436  -0.000441   0.028523  -0.012786
   28  C  2  S   -0.022544  -1.590106   0.016919  -0.586513  -0.251080
   29  C  2  X   -0.112656   0.001291   0.044573  -0.000686   0.003706
   30  C  2  Y   -0.001564   0.033833  -0.000869   0.034600  -0.202994
   31  C  2  Z   -0.000850   0.017036   0.001061  -0.017957   0.034595
   32  C  2  X   -0.640847   0.015656   0.448881  -0.009729   0.043534
   33  C  2  Y   -0.023130  -0.493444  -0.005906   0.179350  -2.260392
   34  C  2  Z    0.037944   3.041877  -0.018378   2.041114  -2.957488
   35  C  2 XX   -0.000779   0.028839   0.000281   0.007305   0.005555
   36  C  2 YY    0.001835   0.052011  -0.000245   0.011189  -0.021193
   37  C  2 ZZ   -0.001056  -0.080850  -0.000036  -0.018494   0.015639
   38  C  2 XY    0.035443  -0.000914  -0.010290  -0.000075   0.000770
   39  C  2 XZ    0.024695   0.000140   0.015152  -0.000091   0.000168
   40  C  2 YZ    0.000252  -0.021361   0.000084   0.006047  -0.007150
   41  C  2  S   -0.112639  -4.239370  -0.009855   0.590577   0.747945
   42  C  2  X   -0.463550  -0.045724   0.538098   0.004197   0.054827
   43  C  2  Y    0.033017   2.667331   0.000997  -0.622995  -2.760380
   44  C  2  Z    0.067548   3.950551   0.003310   0.612361  -1.911365
   45  C  2 XX    0.015970   0.360728   0.007514   0.143352   0.900200
   46  C  2 YY   -0.007500   0.385230  -0.011303   0.776496  -0.960537
   47  C  2 ZZ   -0.008470  -0.745959   0.003789  -0.919849   0.060338
   48  C  2 XY   -0.365702   0.001767  -0.180177  -0.011013   0.044249
   49  C  2 XZ   -0.161008  -0.021080   0.327025  -0.009613  -0.001717
   50  C  2 YZ    0.013418   1.161524   0.005702   0.728451   0.122500
   51  H  3  S   -0.000842  -0.020936   0.000247   0.054493  -0.034167
   52  H  3  S   -0.041554  -3.008629   0.036232  -3.297500   6.780095
   53  H  3  X    0.004928   0.000017   0.000143   0.000021  -0.000005
   54  H  3  Y    0.000077  -0.000675   0.000038   0.000351   0.002095
   55  H  3  Z   -0.000526  -0.034812   0.000061  -0.009641   0.008969
   56  H  3  S   -0.059021  -2.938797   0.003684  -0.573306   3.012960
   57  H  3  X    1.522179  -0.039712  -0.389397  -0.014322   0.034049
   58  H  3  Y    0.042690   1.056214  -0.009556   0.485574  -1.433671
   59  H  3  Z   -0.010072  -1.068327  -0.010638   0.743224  -0.880664
   60  H  4  S   -0.001378  -0.051888   0.000520   0.026244   0.038866
   61  H  4  S   -0.006385  -0.541566   0.001182   4.321419   0.168583
   62  H  4  X    0.005023   0.000086  -0.011964  -0.000108  -0.000119
   63  H  4  Y    0.000253  -0.000762  -0.000095   0.005021   0.003938
   64  H  4  Z    0.000094   0.004040  -0.000003   0.002849   0.000727
   65  H  4  S   -0.009722  -1.318625  -0.006159   4.142556   0.216970
   66  H  4  X    1.293805  -0.015133   0.717238  -0.002329   0.010394
   67  H  4  Y    0.025371   0.158378   0.012382  -0.097113  -0.294245
   68  H  4  Z    0.009095   0.771785  -0.004883   1.553931  -0.435810
   69  H  5  S   -0.000238   0.045048   0.000931   0.009064   0.022512
   70  H  5  S    0.036312   3.360476   0.008663  -2.652479   0.496492
   71  H  5  X   -0.006469  -0.000007  -0.010069  -0.000221   0.000080
   72  H  5  Y   -0.000143   0.008222  -0.000139   0.014443   0.000642
   73  H  5  Z   -0.000528  -0.032998  -0.000055  -0.018250   0.001681
   74  H  5  S    0.059847   3.708303   0.019887  -3.845244  -0.970261
   75  H  5  X   -0.460872  -0.001737   1.621128   0.013248  -0.006818
   76  H  5  Y   -0.020272  -0.562244   0.019141  -0.404291  -0.213907
   77  H  5  Z   -0.003471   0.398867  -0.001232  -0.907600  -0.200438

                     31         32         33         34         35
                    0.4383     0.4440     0.4485     0.4762     0.4834
                     A          A          A          A          A   
    1  C  1  S    0.065007   0.011983   0.001881   0.022321   0.003171
    2  C  1  S    0.029951  -0.048446  -0.001027  -0.024662   0.009376
    3  C  1  S   -4.162710   0.916959  -0.026140  -2.199766  -0.209186
    4  C  1  X   -0.002861  -0.014689   0.249695   0.003889   0.049279
    5  C  1  Y    0.026309  -0.065143   0.001335  -0.134865  -0.012764
    6  C  1  Z    0.081398   0.001573   0.005626  -0.008923   0.032727
    7  C  1  X   -0.024589  -0.122625   1.822601   0.060598   0.336923
    8  C  1  Y   -0.604617   1.251518   0.159082  -3.614992   0.197356
    9  C  1  Z    5.990203   3.703692   0.267278  -0.789610   0.182458
   10  C  1 XX    0.017631  -0.008766  -0.000086  -0.012751   0.000981
   11  C  1 YY   -0.026584  -0.004939  -0.000616   0.012907  -0.000114
   12  C  1 ZZ    0.008952   0.013705   0.000702  -0.000156  -0.000867
   13  C  1 XY    0.000598  -0.000245   0.002075  -0.000310   0.005120
   14  C  1 XZ   -0.000020   0.000283  -0.014057  -0.000074   0.031455
   15  C  1 YZ    0.020398   0.010911   0.000001  -0.012410  -0.004099
   16  C  1  S   -6.894679  -3.923419  -0.386235   3.598085  -0.448545
   17  C  1  X   -0.012502  -0.084721   1.142089   0.018527  -0.158872
   18  C  1  Y   -0.570742   1.667369   0.138737  -0.792196   0.064265
   19  C  1  Z    1.104097   0.222694   0.010424   0.797177   0.000730
   20  C  1 XX    0.584421   0.262501   0.040062  -0.455936   0.028478
   21  C  1 YY   -1.960793  -0.729555  -0.054151   0.497534   0.052736
   22  C  1 ZZ    1.376372   0.467053   0.014089  -0.041598  -0.081214
   23  C  1 XY    0.035281   0.035782  -0.257577  -0.028369   0.326127
   24  C  1 XZ   -0.002348   0.063940  -0.115656   0.004933  -1.449855
   25  C  1 YZ    0.579401  -2.662008  -0.144804  -0.134787  -0.118423
   26  C  2  S    0.062841   0.027510   0.001695   0.053580  -0.001342
   27  C  2  S   -0.000266  -0.025783  -0.003485   0.013201  -0.011422
   28  C  2  S   -6.512500  -2.401611  -0.157709  -4.266265   0.040924
   29  C  2  X    0.000025   0.009625  -0.256164   0.000920   0.251636
   30  C  2  Y    0.128175   0.064260   0.000538  -0.136871   0.002357
   31  C  2  Z    0.027469  -0.080798  -0.000528  -0.174852   0.021206
   32  C  2  X    0.017524  -0.036559  -0.698747   0.033095   1.547072
   33  C  2  Y   -0.677598   3.231909   0.147299  -1.447286   0.076776
   34  C  2  Z    3.125759   2.768417   0.182784  -2.358670   0.146119
   35  C  2 XX    0.033334  -0.001469  -0.000042  -0.011077  -0.002134
   36  C  2 YY   -0.012520   0.027362   0.001483   0.016738   0.001237
   37  C  2 ZZ   -0.020814  -0.025893  -0.001441  -0.005661   0.000897
   38  C  2 XY    0.000848  -0.000847   0.004510  -0.000641  -0.003829
   39  C  2 XZ    0.000458  -0.000085  -0.015360  -0.000512  -0.001946
   40  C  2 YZ   -0.020291   0.055153   0.002830   0.013547   0.003434
   41  C  2  S   -0.703582   1.400716   0.148168  -4.676219   0.367784
   42  C  2  X    0.008178   0.052514  -1.183416  -0.001602   0.532308
   43  C  2  Y    0.503604   0.026302  -0.025861  -0.227980   0.019616
   44  C  2  Z   -0.235374  -0.140914  -0.029460   0.154242  -0.034541
   45  C  2 XX    0.043039   0.215442   0.031176  -0.145524  -0.065715
   46  C  2 YY    0.525728   1.360141   0.046591   0.100038  -0.018011
   47  C  2 ZZ   -0.568767  -1.575583  -0.077767   0.045485   0.083726
   48  C  2 XY    0.000126  -0.007532  -0.659743  -0.002902   0.984731
   49  C  2 XZ   -0.006142  -0.049288   1.062784   0.021728   0.318331
   50  C  2 YZ   -0.384422  -0.822529  -0.018724  -0.360670   0.084794
   51  H  3  S   -0.092088   0.188607   0.010513   0.130308   0.015445
   52  H  3  S    1.152546  -3.220781  -0.178904   6.409757  -0.201366
   53  H  3  X    0.000394   0.000437  -0.017238  -0.000642   0.022381
   54  H  3  Y   -0.018824   0.013454   0.000177   0.029567   0.001488
   55  H  3  Z   -0.020518   0.025794   0.001453   0.003583   0.003166
   56  H  3  S   -0.038013  -0.206032  -0.005815   0.876408  -0.049040
   57  H  3  X    0.000158  -0.021385   0.746326   0.061839  -1.418267
   58  H  3  Y   -0.410911  -0.179577   0.015974  -3.221234   0.067214
   59  H  3  Z   -0.076292   1.447537   0.061980  -0.981703  -0.139798
   60  H  4  S   -0.044047  -0.083272  -0.005858   0.016162  -0.014453
   61  H  4  S    6.295303   9.341725   0.682757  -5.749163   0.500562
   62  H  4  X   -0.000139  -0.000702   0.016944   0.000070  -0.004688
   63  H  4  Y    0.007117  -0.018379  -0.000662   0.003978  -0.000057
   64  H  4  Z   -0.006149  -0.011550  -0.000152  -0.000551   0.004153
   65  H  4  S    1.442009   1.897081   0.146578  -0.880874   0.071921
   66  H  4  X   -0.013762   0.030589  -1.301436   0.013008  -0.168793
   67  H  4  Y    1.152452   3.003976   0.190685  -1.583458   0.153495
   68  H  4  Z    1.848380   0.098771   0.027765  -1.225842  -0.033446
   69  H  5  S   -0.177153   0.094451   0.004413   0.111995   0.016431
   70  H  5  S    9.058308  -2.759027  -0.137693   4.666027  -0.126146
   71  H  5  X    0.000033  -0.000499   0.008122  -0.000304   0.013825
   72  H  5  Y   -0.007065  -0.005395  -0.000275   0.022852   0.001904
   73  H  5  Z    0.007087  -0.004318  -0.000307   0.003147  -0.000979
   74  H  5  S    1.527065  -0.556986  -0.038706   0.826184   0.025674
   75  H  5  X    0.026770   0.014693  -0.438884   0.035840  -1.174229
   76  H  5  Y   -2.087304   1.536825   0.073956  -2.554545  -0.054456
   77  H  5  Z    1.150601   0.951466   0.032080   1.416224  -0.060693

                     36         37         38         39         40
                    0.4872     0.4933     0.5048     0.5570     0.5630
                     A          A          A          A          A   
    1  C  1  S    0.014966   0.103993  -0.026280   0.077758  -0.006638
    2  C  1  S   -0.107770  -0.000042  -0.027715   0.022474  -0.003189
    3  C  1  S   -1.881364  -8.234594   4.443670  -8.340016   0.668034
    4  C  1  X    0.003660  -0.003696   0.002618   0.002263   0.070741
    5  C  1  Y    0.174102  -0.001790  -0.108905  -0.060154   0.002149
    6  C  1  Z   -0.230985   0.333096  -0.088546  -0.144244   0.012794
    7  C  1  X    0.062528  -0.012102   0.123081   0.105843   1.375355
    8  C  1  Y   -0.548193  -0.963342  -7.107248  -0.195689  -0.002562
    9  C  1  Z   -2.912619  -2.585825   1.410089  -1.558010   0.162741
   10  C  1 XX   -0.010576   0.009327  -0.006153   0.027070  -0.002737
   11  C  1 YY    0.014251   0.031087  -0.009219  -0.008145   0.001205
   12  C  1 ZZ   -0.003674  -0.040414   0.015372  -0.018925   0.001532
   13  C  1 XY   -0.000120  -0.000492   0.000162   0.001013   0.002744
   14  C  1 XZ    0.001433  -0.001026   0.000305  -0.004131  -0.055890
   15  C  1 YZ    0.055958  -0.004573   0.013527  -0.027732   0.001478
   16  C  1  S    4.538585  -5.311689  -4.749342 -14.729121   1.357764
   17  C  1  X   -0.000835   0.008338   0.026828   0.008149   0.225150
   18  C  1  Y   -0.224659  -0.590236  -1.896942   0.902086  -0.073299
   19  C  1  Z    0.398919  -0.248074  -0.969222  -4.857357   0.447828
   20  C  1 XX   -0.304160   0.323408   0.563817  -0.055023  -0.047205
   21  C  1 YY    0.613159   2.632346  -0.675757  -1.831726   0.188657
   22  C  1 ZZ   -0.308999  -2.955755   0.111940   1.886749  -0.141453
   23  C  1 XY    0.003827  -0.049894   0.015139   0.153330   1.606939
   24  C  1 XZ   -0.128763   0.052720  -0.033451   0.144275   2.178088
   25  C  1 YZ    0.827777   0.386850   0.276119   0.217356  -0.011433
   26  C  2  S   -0.008225  -0.088647  -0.030573  -0.050836   0.004404
   27  C  2  S    0.090027  -0.085051  -0.010205   0.135190  -0.010940
   28  C  2  S    2.588065  10.116577   2.728776   2.885232  -0.266605
   29  C  2  X    0.015944  -0.007407   0.002350  -0.029177  -0.318197
   30  C  2  Y    0.067299  -0.022691  -0.017628   0.000999  -0.002170
   31  C  2  Z   -0.189849   0.184717  -0.001041  -0.080671   0.005173
   32  C  2  X    0.125697  -0.082608  -0.033253  -0.100972  -1.442353
   33  C  2  Y   -0.546495   1.115898   3.278335   0.616317  -0.039556
   34  C  2  Z   -3.173630  -2.953156   2.588766  -1.430183   0.143298
   35  C  2 XX    0.010043  -0.050003   0.003141   0.010722  -0.001361
   36  C  2 YY   -0.013854   0.004677   0.006920  -0.027415   0.003032
   37  C  2 ZZ    0.003811   0.045326  -0.010060   0.016692  -0.001671
   38  C  2 XY    0.000473  -0.000998  -0.000329   0.003171   0.027400
   39  C  2 XZ    0.000176   0.000015  -0.000450  -0.001854  -0.033155
   40  C  2 YZ   -0.032008   0.007855   0.009670  -0.014583   0.000922
   41  C  2  S   -4.326481   5.579238   5.755560  15.718367  -1.468027
   42  C  2  X    0.039074  -0.023116  -0.012806  -0.013075  -0.387426
   43  C  2  Y   -0.192728   0.467496   0.975306  -1.172084   0.091751
   44  C  2  Z    0.386357  -0.750314  -0.691831  -3.811182   0.354260
   45  C  2 XX    0.238648  -0.342594  -0.020749  -0.370552   0.034630
   46  C  2 YY    0.307479  -0.546355   1.482818  -0.914154   0.074766
   47  C  2 ZZ   -0.546127   0.888949  -1.462069   1.284706  -0.109396
   48  C  2 XY    0.073919  -0.031034  -0.007624   0.017558   0.052608
   49  C  2 XZ    0.062083  -0.023727   0.025355   0.129354   1.900167
   50  C  2 YZ   -0.955843   0.266280  -0.354256   1.055499  -0.088975
   51  H  3  S   -0.184324  -0.023371   0.046380  -0.153033   0.010337
   52  H  3  S    2.360167  -4.015869  -7.353348  -3.079488   0.270255
   53  H  3  X    0.001790  -0.000888   0.000152   0.000381  -0.001788
   54  H  3  Y   -0.006586   0.015034   0.008696  -0.036080   0.002730
[...]
 II,JST,KST,LST =  2  1  1  1 NREC =         1 INTLOC =    1
 II,JST,KST,LST =  3  1  1  1 NREC =         1 INTLOC =    1
 II,JST,KST,LST =  4  1  1  1 NREC =         1 INTLOC =    1
 II,JST,KST,LST =  5  1  1  1 NREC =         1 INTLOC =    1
 II,JST,KST,LST =  6  1  1  1 NREC =         1 INTLOC =    1
 II,JST,KST,LST =  7  1  1  1 NREC =         1 INTLOC =    4
 II,JST,KST,LST =  8  1  1  1 NREC =         1 INTLOC =   49
 II,JST,KST,LST =  9  1  1  1 NREC =         1 INTLOC =  436
 II,JST,KST,LST = 10  1  1  1 NREC =         1 INTLOC =  436
 II,JST,KST,LST = 11  1  1  1 NREC =         1 INTLOC =  436
 II,JST,KST,LST = 12  1  1  1 NREC =         1 INTLOC =  474
 II,JST,KST,LST = 13  1  1  1 NREC =         1 INTLOC =  891
 II,JST,KST,LST = 14  1  1  1 NREC =         1 INTLOC =  891
 II,JST,KST,LST = 15  1  1  1 NREC =         1 INTLOC = 1734
 II,JST,KST,LST = 16  1  1  1 NREC =         1 INTLOC = 3822
 II,JST,KST,LST = 17  1  1  1 NREC =         1 INTLOC = 7314
 II,JST,KST,LST = 18  1  1  1 NREC =         1 INTLOC = 7314
 II,JST,KST,LST = 19  1  1  1 NREC =         1 INTLOC =14481
 II,JST,KST,LST = 20  1  1  1 NREC =         2 INTLOC = 1982
 II,JST,KST,LST = 21  1  1  1 NREC =         2 INTLOC = 5858
 II,JST,KST,LST = 22  1  1  1 NREC =         6 INTLOC =13612
 II,JST,KST,LST = 23  1  1  1 NREC =         6 INTLOC =13612
 II,JST,KST,LST = 24  1  1  1 NREC =         6 INTLOC =13612
 II,JST,KST,LST = 25  1  1  1 NREC =         7 INTLOC =13666
 II,JST,KST,LST = 26  1  1  1 NREC =         7 INTLOC =13666
 II,JST,KST,LST = 27  1  1  1 NREC =        11 INTLOC =14229
 II,JST,KST,LST = 28  1  1  1 NREC =        11 INTLOC =14229
 II,JST,KST,LST = 29  1  1  1 NREC =        11 INTLOC =14229
 II,JST,KST,LST = 30  1  1  1 NREC =        14 INTLOC =  273
 II,JST,KST,LST = 31  1  1  1 NREC =        14 INTLOC =  273
 II,JST,KST,LST = 32  1  1  1 NREC =        18 INTLOC =  835
 II,JST,KST,LST = 33  1  1  1 NREC =        18 INTLOC =  835
 II,JST,KST,LST = 34  1  1  1 NREC =        20 INTLOC =  787
 II,JST,KST,LST = 35  1  1  1 NREC =        20 INTLOC =13989
 II,JST,KST,LST = 36  1  1  1 NREC =        21 INTLOC = 4540
 II,JST,KST,LST = 37  1  1  1 NREC =        22 INTLOC = 2832
 II,JST,KST,LST = 38  1  1  1 NREC =        26 INTLOC = 5063
 II,JST,KST,LST = 39  1  1  1 NREC =        32 INTLOC = 1801
 II,JST,KST,LST = 40  1  1  1 NREC =        35 INTLOC = 5677
 II,JST,KST,LST = 41  1  1  1 NREC =        38 INTLOC = 7247
 II,JST,KST,LST = 42  1  1  1 NREC =        42 INTLOC =  408
 II,JST,KST,LST = 43  1  1  1 NREC =        48 INTLOC = 4642
 II,JST,KST,LST = 44  1  1  1 NREC =        49 INTLOC = 2533
 II,JST,KST,LST = 45  1  1  1 NREC =        50 INTLOC = 1994
 II,JST,KST,LST = 46  1  1  1 NREC =        50 INTLOC =11264
 II,JST,KST,LST = 47  1  1  1 NREC =        55 INTLOC = 5035
 II,JST,KST,LST = 48  1  1  1 NREC =        75 INTLOC = 5802
 II,JST,KST,LST = 49  1  1  1 NREC =        88 INTLOC =   17
 II,JST,KST,LST = 50  1  1  1 NREC =        93 INTLOC = 7484
 II,JST,KST,LST = 51  1  1  1 NREC =       101 INTLOC = 6576
 II,JST,KST,LST = 52  1  1  1 NREC =       124 INTLOC =10705
 II,JST,KST,LST = 53  1  1  1 NREC =       127 INTLOC = 4437
 II,JST,KST,LST = 54  1  1  1 NREC =       132 INTLOC = 5221
 II,JST,KST,LST = 55  1  1  1 NREC =       146 INTLOC = 3908
 II,JST,KST,LST = 56  1  1  1 NREC =       155 INTLOC = 7819
 II,JST,KST,LST = 57  1  1  1 NREC =       173 INTLOC = 8655
 II,JST,KST,LST = 58  1  1  1 NREC =       178 INTLOC = 9684
 II,JST,KST,LST = 59  1  1  1 NREC =       180 INTLOC = 4544
 II,JST,KST,LST = 60  1  1  1 NREC =       195 INTLOC = 7159
 II,JST,KST,LST = 61  1  1  1 NREC =       200 INTLOC = 5932
 II,JST,KST,LST = 62  1  1  1 NREC =       215 INTLOC = 1352
 II,JST,KST,LST = 63  1  1  1 NREC =       219 INTLOC =11240
 II,JST,KST,LST = 64  1  1  1 NREC =       227 INTLOC = 7335
 II,JST,KST,LST = 65  1  1  1 NREC =       253 INTLOC = 6663
 II,JST,KST,LST = 66  1  1  1 NREC =       258 INTLOC =13270
 SCHWARZ INEQUALITY TEST SKIPPED       48654 INTEGRAL BLOCKS.
 TOTAL NUMBER OF NONZERO TWO-ELECTRON INTEGRALS =            66698404
       4454 INTEGRAL RECORDS WERE STORED ON DISK FILE  8.
  ...... END OF TWO-ELECTRON INTEGRALS .....
 CPU     0: STEP CPU TIME=     0.25 TOTAL CPU TIME=         23.0 (      0.4 MIN)
 TOTAL WALL CLOCK TIME=         23.4 SECONDS, CPU UTILIZATION IS    98.38%

          ---------------------------------------------
          MONOMER ELECTROSTATIC INTERACTION (OWN BASIS)
          ---------------------------------------------

          -------------
          GUESS OPTIONS
          -------------
          GUESS =MOSAVED           NORB  =       0          NORDER=       0
          MIX   =       F          PRTMO =       F          PUNMO =       F
          TOLZ  = 1.0E-08          TOLE  = 1.0E-05
          SYMDEN=       F          PURIFY=       F

 INITIAL GUESS ORBITALS GENERATED BY MOSAVED  ROUTINE.

 STATISTICS FOR GENERATION OF SYMMETRY ORBITAL -Q- MATRIX
 NUMBER OF CARTESIAN ATOMIC ORBITALS=        154
 NUMBER OF SPHERICAL CONTAMINANTS DROPPED=     8
 NUMBER OF LINEARLY DEPENDENT MOS DROPPED=     0
 TOTAL NUMBER OF MOS IN VARIATION SPACE=     146
 ...... END OF INITIAL ORBITAL SELECTION ......
 CPU     0: STEP CPU TIME=     0.01 TOTAL CPU TIME=         23.0 (      0.4 MIN)
 TOTAL WALL CLOCK TIME=         23.4 SECONDS, CPU UTILIZATION IS    98.38%

          ---------------------------
                  UHF SCF CALCULATION
          ---------------------------

 FINAL UHF ENERGY IS     -155.2896368453 AFTER   1 ITERATIONS
 ...... END OF UHF CALCULATION ......
 CPU     0: STEP CPU TIME=     0.08 TOTAL CPU TIME=         23.1 (      0.4 MIN)
 TOTAL WALL CLOCK TIME=         23.5 SECONDS, CPU UTILIZATION IS    98.33%

          -------------
          GUESS OPTIONS
          -------------
          GUESS =MOSAVED           NORB  =       0          NORDER=       0
          MIX   =       F          PRTMO =       F          PUNMO =       F
          TOLZ  = 1.0E-08          TOLE  = 1.0E-05
          SYMDEN=       F          PURIFY=       F

 INITIAL GUESS ORBITALS GENERATED BY MOSAVED  ROUTINE.

 STATISTICS FOR GENERATION OF SYMMETRY ORBITAL -Q- MATRIX
 NUMBER OF CARTESIAN ATOMIC ORBITALS=        154
 NUMBER OF SPHERICAL CONTAMINANTS DROPPED=     8
 NUMBER OF LINEARLY DEPENDENT MOS DROPPED=     0
 TOTAL NUMBER OF MOS IN VARIATION SPACE=     146
 ...... END OF INITIAL ORBITAL SELECTION ......
 CPU     0: STEP CPU TIME=     0.01 TOTAL CPU TIME=         23.1 (      0.4 MIN)
 TOTAL WALL CLOCK TIME=         23.5 SECONDS, CPU UTILIZATION IS    98.33%

          ---------------------------
                  UHF SCF CALCULATION
          ---------------------------

 DIRECT SCF CALCULATION, SCHWRZ=T   FDIFF=T
 SCHWARZ INEQUALITY OVERHEAD:     11926 INTEGRALS, T=        0.00

 FINAL UHF ENERGY IS     -331.1597340080 AFTER   1 ITERATIONS
 ...... END OF UHF CALCULATION ......
 CPU     0: STEP CPU TIME=     0.25 TOTAL CPU TIME=         23.3 (      0.4 MIN)
 TOTAL WALL CLOCK TIME=         23.7 SECONDS, CPU UTILIZATION IS    98.31%

 XEDA STEP ENERGY SUMMATION
 ETOT =       -155.28963685     ENUC =        102.40445597
 EEXCH=        -22.94128546

          --------------------------------------------------
          MONOMER EXCHANGE-REPULSION INTERACTION (OWN BASIS)
          --------------------------------------------------

          -------------
          GUESS OPTIONS
          -------------
          GUESS =MOSAVED           NORB  =       0          NORDER=       0
          MIX   =       F          PRTMO =       F          PUNMO =       F
          TOLZ  = 1.0E-08          TOLE  = 1.0E-05
          SYMDEN=       F          PURIFY=       F

 INITIAL GUESS ORBITALS GENERATED BY MOSAVED  ROUTINE.

 STATISTICS FOR GENERATION OF SYMMETRY ORBITAL -Q- MATRIX
 NUMBER OF CARTESIAN ATOMIC ORBITALS=        154
 NUMBER OF SPHERICAL CONTAMINANTS DROPPED=     8
 NUMBER OF LINEARLY DEPENDENT MOS DROPPED=     0
 TOTAL NUMBER OF MOS IN VARIATION SPACE=     146
 ...... END OF INITIAL ORBITAL SELECTION ......
 CPU     0: STEP CPU TIME=     0.01 TOTAL CPU TIME=         23.3 (      0.4 MIN)
 TOTAL WALL CLOCK TIME=         23.7 SECONDS, CPU UTILIZATION IS    98.31%

          ---------------------------
                  UHF SCF CALCULATION
          ---------------------------

 FINAL UHF ENERGY IS     -154.6308906295 AFTER   1 ITERATIONS
 ...... END OF UHF CALCULATION ......
 CPU     0: STEP CPU TIME=     0.07 TOTAL CPU TIME=         23.4 (      0.4 MIN)
 TOTAL WALL CLOCK TIME=         23.8 SECONDS, CPU UTILIZATION IS    98.27%

 XEDA STEP ENERGY SUMMATION
 ETOT =       -154.63089063     ENUC =        102.40445597

          ---------------------------------------------
          MONOMER ELECTROSTATIC INTERACTION (ALL BASIS)
          ---------------------------------------------

          -------------
          GUESS OPTIONS
          -------------
          GUESS =MOSAVED           NORB  =       0          NORDER=       0
          MIX   =       F          PRTMO =       F          PUNMO =       F
          TOLZ  = 1.0E-08          TOLE  = 1.0E-05
          SYMDEN=       F          PURIFY=       F

 INITIAL GUESS ORBITALS GENERATED BY MOSAVED  ROUTINE.

 STATISTICS FOR GENERATION OF SYMMETRY ORBITAL -Q- MATRIX
 NUMBER OF CARTESIAN ATOMIC ORBITALS=        154
 NUMBER OF SPHERICAL CONTAMINANTS DROPPED=     8
 NUMBER OF LINEARLY DEPENDENT MOS DROPPED=     0
 TOTAL NUMBER OF MOS IN VARIATION SPACE=     146
 ...... END OF INITIAL ORBITAL SELECTION ......
 CPU     0: STEP CPU TIME=     0.01 TOTAL CPU TIME=         23.4 (      0.4 MIN)
 TOTAL WALL CLOCK TIME=         23.8 SECONDS, CPU UTILIZATION IS    98.27%

          ---------------------------
                  UHF SCF CALCULATION
          ---------------------------

 FINAL UHF ENERGY IS     -155.2966889782 AFTER   1 ITERATIONS
 ...... END OF UHF CALCULATION ......
 CPU     0: STEP CPU TIME=     0.07 TOTAL CPU TIME=         23.5 (      0.4 MIN)
 TOTAL WALL CLOCK TIME=         23.9 SECONDS, CPU UTILIZATION IS    98.22%

          -------------
          GUESS OPTIONS
          -------------
          GUESS =MOSAVED           NORB  =       0          NORDER=       0
          MIX   =       F          PRTMO =       F          PUNMO =       F
          TOLZ  = 1.0E-08          TOLE  = 1.0E-05
          SYMDEN=       F          PURIFY=       F

 INITIAL GUESS ORBITALS GENERATED BY MOSAVED  ROUTINE.

 STATISTICS FOR GENERATION OF SYMMETRY ORBITAL -Q- MATRIX
 NUMBER OF CARTESIAN ATOMIC ORBITALS=        154
 NUMBER OF SPHERICAL CONTAMINANTS DROPPED=     8
 NUMBER OF LINEARLY DEPENDENT MOS DROPPED=     0
 TOTAL NUMBER OF MOS IN VARIATION SPACE=     146
 ...... END OF INITIAL ORBITAL SELECTION ......
 CPU     0: STEP CPU TIME=     0.01 TOTAL CPU TIME=         23.5 (      0.4 MIN)
 TOTAL WALL CLOCK TIME=         23.9 SECONDS, CPU UTILIZATION IS    98.22%

          ---------------------------
                  UHF SCF CALCULATION
          ---------------------------

 DIRECT SCF CALCULATION, SCHWRZ=T   FDIFF=T
 SCHWARZ INEQUALITY OVERHEAD:     11926 INTEGRALS, T=        0.00

 FINAL UHF ENERGY IS     -331.1824729771 AFTER   1 ITERATIONS
 ...... END OF UHF CALCULATION ......
 CPU     0: STEP CPU TIME=     0.25 TOTAL CPU TIME=         23.8 (      0.4 MIN)
 TOTAL WALL CLOCK TIME=         24.2 SECONDS, CPU UTILIZATION IS    98.20%

 XEDA STEP ENERGY SUMMATION
 ETOT =       -155.29668898     ENUC =        102.40445597
 EEXCH=        -22.94216641

          --------------------------------------------------
          MONOMER EXCHANGE-REPULSION INTERACTION (ALL BASIS)
          --------------------------------------------------

          -------------
          GUESS OPTIONS
          -------------
          GUESS =MOSAVED           NORB  =       0          NORDER=       0
          MIX   =       F          PRTMO =       F          PUNMO =       F
          TOLZ  = 1.0E-08          TOLE  = 1.0E-05
          SYMDEN=       F          PURIFY=       F

 INITIAL GUESS ORBITALS GENERATED BY MOSAVED  ROUTINE.

 STATISTICS FOR GENERATION OF SYMMETRY ORBITAL -Q- MATRIX
 NUMBER OF CARTESIAN ATOMIC ORBITALS=        154
 NUMBER OF SPHERICAL CONTAMINANTS DROPPED=     8
 NUMBER OF LINEARLY DEPENDENT MOS DROPPED=     0
 TOTAL NUMBER OF MOS IN VARIATION SPACE=     146
 ...... END OF INITIAL ORBITAL SELECTION ......
 CPU     0: STEP CPU TIME=     0.01 TOTAL CPU TIME=         23.8 (      0.4 MIN)
 TOTAL WALL CLOCK TIME=         24.2 SECONDS, CPU UTILIZATION IS    98.20%

          ---------------------------
                  UHF SCF CALCULATION
          ---------------------------

 FINAL UHF ENERGY IS     -154.6358476331 AFTER   1 ITERATIONS
 ...... END OF UHF CALCULATION ......
 CPU     0: STEP CPU TIME=     0.07 TOTAL CPU TIME=         23.8 (      0.4 MIN)
 TOTAL WALL CLOCK TIME=         24.3 SECONDS, CPU UTILIZATION IS    98.17%

 XEDA STEP ENERGY SUMMATION
 ETOT =       -154.63584763     ENUC =        102.40445597

          --------------------------------
          RESULTS OF INTERACTION ANALYSIS
          --------------------------------

     ENERGY TERMS
     T   ELECTRON KINETIC AND COULOMB POTENTIAL
     X   E-E EXCHANGE COMBINE WITH DIAGNANAL VALUE
     N   NUCLEUS-NUCLEUS REPULSION ENERGY

 --------------
 MONOMER ENERGY
 --------------

 MONOMER    1

                   OWN BASIS           ALL BASIS

 T              -93.96112407        -93.96147874
 X              -11.31417636        -11.31440702
 N               27.89756677         27.89756677
 EC              -0.47431376         -0.47475794
 E              -77.85204742        -77.85307693

 MONOMER    2

                   OWN BASIS           ALL BASIS

 T              -93.96108976        -93.96144070
 X              -11.31417118        -11.31440137
 N               27.89752680         27.89752680
 EC              -0.47431929         -0.47477202
 E              -77.85205343        -77.85308728

 ------------------------------------------------------------
 SUPER MOLECULE ENERGY  USING NON-ANTISYMMETRIC WAVEFUNCTION
 (ELECTROSTATIC ENERGY: T N CHANGE)
 ------------------------------------------------------------

              FROM OWN BASIS      FROM ALL BASIS
 T             -234.75280735       -234.75897853
 X              -22.62834754        -22.62880839
 N              102.40445597        102.40445597
 E             -154.97669893       -154.98333096

 ----------------------------------------------------------------------
 SUPER MOLECULE ENERGY  USING ANTISYMMETRIC NONORTHONORMAL WAVEFUNCTION
 (EXCHANGE ENERGY: ONLY X CHANGES)
 ----------------------------------------------------------------------

              FROM OWN BASIS      FROM ALL BASIS
 T             -234.75280735       -234.75897853
 X              -22.94128546        -22.94216641
 N              102.40445597        102.40445597
 E             -155.28963685       -155.29668898

 -----------------------------------------------------------------------
 SUPER MOLECULE ENERGY  USING ANTISYMMETRIC AND ORTHONORMAL WAVEFUNCTION
 (REPULSION ENERGY: T X CHANGE)
 -----------------------------------------------------------------------

              FROM OWN BASIS      FROM ALL BASIS
 T+X           -257.03534660       -257.04030360
 N              102.40445597        102.40445597
 E             -154.63089063       -154.63584763

 ---------------------------------------------
 SUPER MOLECULE ENERGY  USING SCF WAVEFUNCTION
 (POLARIZATION ENERGY: T X CHANGE)
 ---------------------------------------------
 T+X           -257.31010323
 N              102.40445597
 EC              -0.98442438
 E             -155.89007163


                   *******************************
                   SUMMARY OF INTERACTION ENERGIES
                     XEDA IN XIAMEN UNIVERSITY    
                    - ZHEN TANG AND PEIFENG SU -  
                   *******************************


 -------------
 OWN BASIS SET                                       HARTREE          KCAL/MOL
 -------------
 ELECTROSTATIC ENERGY                  ES=         -0.221231           -138.82
 EXCHANGE ENERGY                       EX=         -0.312938           -196.37
 REPULSION ENERGY                     REP=          0.658746            413.37
 POLARIZATION ENERGY                  POL=         -0.274757           -172.41
 ELECTRON CORRELATION                CORR=         -0.035791            -22.46
 TOTAL INTERACTION ENERGY               E=         -0.185971           -116.70
  

 -------------
 ALL BASIS SET                                       HARTREE          KCAL/MOL
 -------------
 ELECTROSTATIC ENERGY                  ES=         -0.226697           -142.25
 EXCHANGE ENERGY                       EX=         -0.313358           -196.64
 REPULSION ENERGY                     REP=          0.660841            414.68
 POLARIZATION ENERGY                  POL=         -0.269800           -169.30
 ELECTRON CORRELATION                CORR=         -0.034894            -21.90
 TOTAL INTERACTION ENERGY               E=         -0.183907           -115.40
  

                     ***************************
                     END OF INTERACTION ANALYSIS
                     ***************************

              1301896  WORDS OF DYNAMIC MEMORY USED
 EXECUTION OF GAMESS TERMINATED NORMALLY 14:31:20 25-DEC-2023    
 DDI: 263640 bytes (0.3 MB / 0 MWords) used by master data server.

 ----------------------------------------
 CPU timing information for all processes
 ========================================
 0: 23.159 + 0.686 = 23.846
 1: 23.19 + 0.550 = 23.570
 2: 23.21 + 0.546 = 23.568
 3: 22.960 + 0.546 = 23.507
 4: 23.23 + 0.607 = 23.630
 5: 22.997 + 0.531 = 23.529
 6: 22.955 + 0.571 = 23.527
 7: 22.906 + 0.542 = 23.448
 8: 22.996 + 0.595 = 23.591
 9: 22.911 + 0.531 = 23.443
 10: 22.997 + 0.537 = 23.534
 11: 22.892 + 0.509 = 23.401
 12: 22.926 + 0.589 = 23.515
 13: 22.907 + 0.533 = 23.440
 14: 22.896 + 0.581 = 23.477
 15: 22.907 + 0.496 = 23.404
 ----------------------------------------
 ddikick.x: exited gracefully.
----- accounting info -----
Files used on the master node w016 were:
-rw-r--r-- 1 xacs0647 10000  2703863 Dec 25 14:31 /job_dir/19_1685742/19.dat
-rw-r--r-- 1 xacs0647 10000      243 Dec 25 14:31 /job_dir/19_1685742/19.err
-rw-r--r-- 1 xacs0647 10000      837 Dec 25 14:30 /job_dir/19_1685742/19.F05
-rw-r--r-- 1 xacs0647 10000 48784336 Dec 25 14:31 /job_dir/19_1685742/19.F08
-rw-r--r-- 1 xacs0647 10000 56705040 Dec 25 14:31 /job_dir/19_1685742/19.F08.001
-rw-r--r-- 1 xacs0647 10000 47704240 Dec 25 14:31 /job_dir/19_1685742/19.F08.002
-rw-r--r-- 1 xacs0647 10000 50764512 Dec 25 14:31 /job_dir/19_1685742/19.F08.003
-rw-r--r-- 1 xacs0647 10000 46084096 Dec 25 14:31 /job_dir/19_1685742/19.F08.004
-rw-r--r-- 1 xacs0647 10000 49324384 Dec 25 14:31 /job_dir/19_1685742/19.F08.005
-rw-r--r-- 1 xacs0647 10000 50224464 Dec 25 14:31 /job_dir/19_1685742/19.F08.006
-rw-r--r-- 1 xacs0647 10000 51484576 Dec 25 14:31 /job_dir/19_1685742/19.F08.007
-rw-r--r-- 1 xacs0647 10000 50044448 Dec 25 14:31 /job_dir/19_1685742/19.F08.008
-rw-r--r-- 1 xacs0647 10000 45184016 Dec 25 14:31 /job_dir/19_1685742/19.F08.009
-rw-r--r-- 1 xacs0647 10000 48604320 Dec 25 14:31 /job_dir/19_1685742/19.F08.010
-rw-r--r-- 1 xacs0647 10000 43923904 Dec 25 14:31 /job_dir/19_1685742/19.F08.011
-rw-r--r-- 1 xacs0647 10000 53644768 Dec 25 14:31 /job_dir/19_1685742/19.F08.012
-rw-r--r-- 1 xacs0647 10000 52384656 Dec 25 14:31 /job_dir/19_1685742/19.F08.013
-rw-r--r-- 1 xacs0647 10000 54904880 Dec 25 14:31 /job_dir/19_1685742/19.F08.014
-rw-r--r-- 1 xacs0647 10000 52024624 Dec 25 14:31 /job_dir/19_1685742/19.F08.015
-rw-r--r-- 1 xacs0647 10000  5758720 Dec 25 14:31 /job_dir/19_1685742/19.F10
-rw-r--r-- 1 xacs0647 10000      837 Dec 25 14:30 /job_dir/19_1685742/19.inp
-rw-r--r-- 1 xacs0647 10000  2403251 Dec 25 14:31 /job_dir/19_1685742/19.out
Mon Dec 25 14:31:23 CST 2023
0.095u 0.063s 0:27.47 0.5%	0+0k 0+40io 0pf+0w
