----- GAMESS execution script 'rungms' -----
This job is running on host w013
under operating system Linux at Mon Dec 25 14:31:28 CST 2023
Available scratch disk space (Kbyte units) at beginning of the job is
Filesystem              1K-blocks    Used Available Use% Mounted on
/dev/mapper/system-root 932514944 2745644 929769300   1% /
GAMESS temporary binary files will be written to /job_dir/2_1685752
GAMESS supplementary output files will be written to /job_dir/2_1685752
Copying input file ./2.inp to your run's scratch directory...
 
Assuming a single but multicore node.
 

 Distributed Data Interface kickoff program.
 Initiating 16 compute processes on 1 nodes to run the following command:
 /share/apps/xeda-apps/xeda-td/gamess.00.x 2 

          *******************************************************
          *                                                     *
          *          GAMESS VERSION = 30 SEP 2020 (R2)          *
          *                                                     *
          *              doi.org/10.1063/5.0005188              *
          *                                                     *
          **************** 64 BIT LINUX VERSION *****************

  GAMESS HAS BEEN MADE POSSIBLE WITH IMPORTANT CONTRIBUTIONS FROM
  THE FOLLOWING INDIVIDUALS (IN ALPHABETICAL ORDER):

     IVANA ADAMOVIC, CHRISTINE AIKENS, TOMOKO AKAMA,
     YURI ALEXEEV, YURIKO AOKI, POOJA ARORA, TOSHIO ASADA,
     ANDREY ASADCHEV, KIM K. BALDRIDGE, PRADIPTA BANDYOPADHYAY,
     MARIA BARYSZ, ROB BELL, JONATHAN BENTZ, COLLEEN BERTONI,
     JERRY A. BOATZ, BRETT BODE, KURT BRORSEN, KURT R. BRORSEN,
     LAIMUTIS BYTAUTAS, CALEB CARLIN, LAURA CARRINGTON,
     GALINA CHABAN, BENOIT CHAMPAGNE, WEI CHEN, MAHITO CHIBA,
     DAN CHIPMAN, CHEOL HO CHOI, TANNER CULPITT,
     DIPAYAN DATTA, PAUL DAY, ALBERT DEFUSCO,
     NUWAN DESILVA, J. EMILIANO DEUSTUA,
     TIM DUDLEY, MICHEL DUPUIS, STEVEN T. ELBERT,
     DMITRI FEDOROV, ALEX FINDLATER, GRAHAM FLETCHER,
     MARK FREITAG, CHRISTIAN FRIEDL, DAVID GARMER,
     IGOR S. GERASIMOV, KURT GLAESEMANN, MARK S. GORDON,
     JEFFREY GOUR, FENG LONG GU, EMILIE B. GUIDEZ,
     ANASTASIA GUNINA, SHARON HAMMES-SCHIFFER, MASATAKE HARUTA,
     KIMIHIKO HIRAO, YASUHIRO IKABATA, TZVETELIN IORDANOV,
     STEPHAN IRLE, KAZUYA ISHIMURA, JOE IVANIC, FRANK JENSEN,
     JAN H. JENSEN, VISVALDAS KAIRYS, MUNEAKI KAMIYA,
     MICHIO KATOUDA, NAOAKI KAWAKAMI, DAN KEMP, BERNARD KIRTMAN,
     KAZUO KITAURA, MARIUSZ KLOBUKOWSKI, MASATO KOBAYASHI,
     PRAKASHAN KORAMBATH, JACEK KORCHOWIEC, SHIRO KOSEKI,
     KAROL KOWALSKI, JIMMY KROMANN, STANISLAW KUCHARSKI,
     HENRY KURTZ, SAROM SOK LEANG, HUI LI, SHUHUA LI, WEI LI,
     JESSE LUTZ, ALEKSANDR O. LYKHIN, MARCIN MAKOWSKI,
     JOANI MATO, NIKITA MATSUNAGA, BENEDETTA MENNUCCI,
     GRANT MERRILL, NORIYUKI MINEZAWA, VLADIMIR MIRONOV,
     EISAKU MIYOSHI, JOHN A. MONTGOMERY JR., HIROTOSHI MORI,
     JONATHAN MULLIN, MONIKA MUSIAL, SHIGERU NAGASE,
     TAKESHI NAGATA, HIROMI NAKAI, TAKAHITO NAKAJIMA,
     YUYA NAKAJIMA, HARUYUKI NAKANO, HIROYA NAKATA, SEAN NEDD,
     HEATHER NETZLOFF, KIET A. NGUYEN, YOSHIO NISHIMOTO,
     BOSILJKA NJEGIC, RYAN OLSON, MIKE PAK, ROBERTO PEVERATI,
     BUU PHAM, PIOTR PIECUCH, ANNA POMOGAEVA, DAVID POOLE,
     SPENCER PRUITT, OLIVIER QUINET, LUKE ROSKOP,
     KLAUS RUEDENBERG, ANDREW SAND, TOSAPORN SATTASATHUCHANA,
     NOZOMI SAWADA, MICHAEL W. SCHMIDT, PATRICK E. SCHNEIDER,
     JUNJI SEINO, PRACHI SHARMA, JUN SHEN, JIM SHOEMAKER,
     YINAN SHU, DEJUN SI, JONATHAN SKONE, LYUDMILA SLIPCHENKO,
     TONY SMITH, JIE SONG, MARK SPACKMAN, CASPER STEINMANN,
     WALT STEVENS, PEIFENG SU, SHUJUN SU, CHET SWALINA,
     TETSUYA TAKETSUGU, ZHEN TAO, NANDUN THELLAMUREGE
     SEIKEN TOKURA, JACOPO TOMASI, TSUGUKI TOUMA, TAKAO TSUNEDA,
     HIROAKI UMEDA, JORGE LUIS GALVEZ VALLEJO, YALI WANG,
     SIMON WEBB, AARON WEST, THERESA L. WINDUS, MARTA WLOCH,
     PENG XU, KIYOSHI YAGI, SUSUMU YANAGISAWA, YANG YANG,
     SOOHAENG YOO, TAKESHI YOSHIKAWA, FEDERICO ZAHARIEV,
     TOBY ZENG

  WHO ARE SUPPORTED BY THEIR INSTITUTION/UNIVERSITY/COMPANY/GROUP
  (IN ALPHABETICAL ORDER):

     EP ANALYTICS, FACULTES UNIVERSITAIRES NOTRE-DAME DE LA PAIX,
     INSTITUTE FOR MOLECULAR SCIENCE, IOWA STATE UNIVERSITY,
     JACKSON STATE UNIVERSITY, JOHANNES KEPLER UNIVERSITY LINZ,
     KYUSHU UNIVERSITY, MICHIGAN STATE UNIVERSITY,
     MIE UNIVERSITY, MOSCOW STATE UNIVERSITY,
     N. COPERNICUS UNIVERSITY, NAGOYA UNIVERSITY,
     NANJING UNIVERSITY, NAT. INST. OF ADVANCED INDUSTRIAL
     SCIENCE AND TECHNOLOGY, NATIONAL INST. OF STANDARDS AND
     TECHNOLOGY, NESMEYANOV INSTITUTE OF ORGANOELEMENT COMPOUNDS
     OF RUSSIAN ACADEMY OF SCIENCES, OSAKA PREFECTURE UNIVERSITY,
     PENNSYLVANIA STATE UNIVERSITY, TOKYO INSTITUTE OF TECHNOLOGY,
     UNIVERSITY OF AARHUS, UNIVERSITY OF ALBERTA,
     UNIVERSITY OF CALIFORNIA AT SANTA BARBARA,
     UNIVERSITY OF COPENHAGEN, UNIVERSITY OF IOWA,
     UNIVERSITY OF MEMPHIS, UNIVERSITY OF MINNESOTA,
     UNIVERSITY OF NEBRASKA, UNIVERSITY OF NEW ENGLAND,
     UNIVERSITY OF NOTRE DAME, UNIVERSITY OF PISA,
     UNIVERSITY OF SILESIA, UNIVERSITY OF TOKYO,
     UNIVERSITY OF ZURICH, WASEDA UNIVERSITY, YALE UNIVERSITY

  GAMESS SOFTWARE MANAGEMENT TEAM FOR THIS RELEASE:
     MARK S. GORDON (TEAM LEAD),
     BRETT BODE (SENIOR ADVISOR),
     GIUSEPPE BARCA,
     COLLEEN BERTONI,
     KRISTOPHER KEIPERT (ADVISOR),
     SAROM S. LEANG (DEVELOPMENT LEAD),
     BUU PHAM,
     JORGE LUIS GALVEZ VALLEJO (WEBSITE ADMINISTRATOR),
     PENG XU


 PARALLEL VERSION RUNNING ON       16 PROCESSORS IN        1 NODES.

 EXECUTION OF GAMESS BEGUN 14:31:28 25-DEC-2023    

            ECHO OF THE FIRST FEW INPUT CARDS -
 INPUT CARD> $CONTRL SCFTYP=UHF RUNTYP=EDA dfttyp=B3LYP ispher=1 icharg=0 mult=1 $END       
 INPUT CARD> $SYSTEM  mwords=150 memddi=150 $END                                            
 INPUT CARD> $BASIS gbasis=accd $END                                                        
 INPUT CARD> $LMOEDA MATOM(1)=5 5 MCHARG(1)=0 0 MMULT(1)=2 -2 edatyp=gks $end               
 INPUT CARD> $scf DIIS=.TRUE. ETHRSH=2.0 SWDIIS=0.005 $end                                  
 INPUT CARD> $data                                                                          
 INPUT CARD> EDA calculation with XEDA 1.0                                                  
 INPUT CARD> c1                                                                             
 INPUT CARD>C   6   -0.0490581064    0.9332005050   -1.3488053114                           
 INPUT CARD>C   6   -0.0490581064    0.9332005050    0.0094731885                           
 INPUT CARD>H   1   -0.0359113813    1.8980841780    0.5302743579                           
 INPUT CARD>H   1   -0.0779897404    0.0121384423   -1.9381887489                           
 INPUT CARD>H   1   -0.0322385640    1.8646323871   -1.9188956645                           
 INPUT CARD>C   6   -0.0490581064   -0.2685116782    0.8937908330                           
 INPUT CARD>C   6    0.1409123412   -1.5554691312    0.5031902256                           
 INPUT CARD>H   1    0.3466316907   -1.8320524381   -0.5349558102                           
 INPUT CARD>H   1    0.1082203550   -2.3793649793    1.2194134078                           
 INPUT CARD>H   1   -0.2341520614   -0.0685276516    1.9559364568                           
 INPUT CARD> $end                                                                           
  150000000 WORDS OF MEMORY AVAILABLE

     BASIS OPTIONS
     -------------
     GBASIS=ACCD         IGAUSS=       0      POLAR=NONE    
     NDFUNC=       0     NFFUNC=       0     DIFFSP=       F
     NPFUNC=       0      DIFFS=       F     BASNAM=        


     RUN TITLE
     ---------
  EDA calculation with XEDA 1.0                                                  

 THE POINT GROUP OF THE MOLECULE IS C1      
 THE ORDER OF THE PRINCIPAL AXIS IS     0

 ATOM      ATOMIC                      COORDINATES (BOHR)
           CHARGE         X                   Y                   Z
 C           6.0    -0.0927063786        1.7634932461       -2.5488724493
 C           6.0    -0.0927063786        1.7634932461        0.0179017305
 H           1.0    -0.0678626705        3.5868589981        1.0020732347
 H           1.0    -0.1473792392        0.0229383299       -3.6626456479
 H           1.0    -0.0609220522        3.5236442795       -3.6261870049
 C           6.0    -0.0927063786       -0.5074134963        1.6890197647
 C           6.0     0.2662857132       -2.9394104403        0.9508916461
 H           1.0     0.6550389141       -3.4620771031       -1.0109198968
 H           1.0     0.2045068172       -4.4963478357        2.3043572065
 H           1.0    -0.4424832355       -0.1294984841        3.6961839527

          INTERNUCLEAR DISTANCES (ANGS.)
          ------------------------------

                1 C          2 C          3 H          4 H          5 H     

   1 C       0.0000000    1.3582785 *  2.1123716 *  1.0938762 *  1.0921773 *
   2 C       1.3582785 *  0.0000000    1.0965433 *  2.1546646 *  2.1416010 *
   3 H       2.1123716 *  1.0965433 *  0.0000000    3.1067462    2.4494012 *
   4 H       1.0938762 *  2.1546646 *  3.1067462    0.0000000    1.8531593 *
   5 H       1.0921773 *  2.1416010 *  2.4494012 *  1.8531593 *  0.0000000  
   6 C       2.5442778 *  1.4920221 *  2.1969194 *  2.8459989 *  3.5301263  
   7 C       3.1079660    2.5442724 *  3.4581831    2.9095778 *  4.1944697  
   8 H       2.9095610 *  2.8459791 *  3.8980731    2.3559300 *  3.9653891  
   9 H       4.1944695    3.5301249    4.3350038    3.9654021    5.2801729  
  10 H       3.4581841    2.1969156 *  2.4370831 *  3.8980899    4.3349972  

                6 C          7 C          8 H          9 H         10 H     

   1 C       2.5442778 *  3.1079660    2.9095610 *  4.1944695    3.4581841  
   2 C       1.4920221 *  2.5442724 *  2.8459791 *  3.5301249    2.1969156 *
   3 H       2.1969194 *  3.4581831    3.8980731    4.3350038    2.4370831 *
   4 H       2.8459989 *  2.9095778 *  2.3559300 *  3.9654021    3.8980899  
   5 H       3.5301263    4.1944697    3.9653891    5.2801729    4.3349972  
   6 C       0.0000000    1.3582773 *  2.1546571 *  2.1416041 *  1.0965431 *
   7 C       1.3582773 *  0.0000000    1.0938766 *  1.0921762 *  2.1123778 *
   8 H       2.1546571 *  1.0938766 *  0.0000000    1.8531601 *  3.1067465  
   9 H       2.1416041 *  1.0921762 *  1.8531601 *  0.0000000    2.4494192 *
  10 H       1.0965431 *  2.1123778 *  3.1067465    2.4494192 *  0.0000000  

  * ... LESS THAN  3.000


     ATOMIC BASIS SET
     ----------------
 THE CONTRACTED PRIMITIVE FUNCTIONS HAVE BEEN UNNORMALIZED
 THE CONTRACTED BASIS FUNCTIONS ARE NOW NORMALIZED TO UNITY

  SHELL TYPE  PRIMITIVE        EXPONENT          CONTRACTION COEFFICIENT(S)

 C         

      1   S       1          6665.0000000    0.000691583963
      1   S       2          1000.0000000    0.005325796153
      1   S       3           228.0000000    0.027060721042
      1   S       4            64.7100000    0.101656846141
      1   S       5            21.0600000    0.274574823617
      1   S       6             7.4950000    0.448294318924
      1   S       7             2.7970000    0.284902610715
      1   S       8             0.5215000    0.015194859206

      2   S       9          6665.0000000   -0.000293269653
      2   S      10          1000.0000000   -0.002318035474
      2   S      11           228.0000000   -0.011499786039
      2   S      12            64.7100000   -0.046826727010
      2   S      13            21.0600000   -0.128466168750
      2   S      14             7.4950000   -0.301266272463
      2   S      15             2.7970000   -0.255630702330
      2   S      16             0.5215000    1.093793361012

      3   S      17             0.1596000    1.000000000000

      4   P      18             9.4390000    0.056979251590
      4   P      19             2.0020000    0.313207211501
      4   P      20             0.5456000    0.760376741738

      5   P      21             0.1517000    1.000000000000

      6   D      22             0.5500000    1.000000000000

      7   S      23             0.0469000    1.000000000000

      8   P      24             0.0404100    1.000000000000

      9   D      25             0.1510000    1.000000000000

 C         

     10   S      26          6665.0000000    0.000691583963
     10   S      27          1000.0000000    0.005325796153
     10   S      28           228.0000000    0.027060721042
     10   S      29            64.7100000    0.101656846141
     10   S      30            21.0600000    0.274574823617
     10   S      31             7.4950000    0.448294318924
     10   S      32             2.7970000    0.284902610715
     10   S      33             0.5215000    0.015194859206

     11   S      34          6665.0000000   -0.000293269653
     11   S      35          1000.0000000   -0.002318035474
     11   S      36           228.0000000   -0.011499786039
     11   S      37            64.7100000   -0.046826727010
     11   S      38            21.0600000   -0.128466168750
     11   S      39             7.4950000   -0.301266272463
     11   S      40             2.7970000   -0.255630702330
     11   S      41             0.5215000    1.093793361012

     12   S      42             0.1596000    1.000000000000

     13   P      43             9.4390000    0.056979251590
     13   P      44             2.0020000    0.313207211501
     13   P      45             0.5456000    0.760376741738

     14   P      46             0.1517000    1.000000000000

     15   D      47             0.5500000    1.000000000000

     16   S      48             0.0469000    1.000000000000

     17   P      49             0.0404100    1.000000000000

     18   D      50             0.1510000    1.000000000000

 H         

     19   S      51            13.0100000    0.033498726390
     19   S      52             1.9620000    0.234800801174
     19   S      53             0.4446000    0.813682957883

     20   S      54             0.1220000    1.000000000000

     21   P      55             0.7270000    1.000000000000

     22   S      56             0.0297400    1.000000000000

     23   P      57             0.1410000    1.000000000000

 H         

     24   S      58            13.0100000    0.033498726390
     24   S      59             1.9620000    0.234800801174
     24   S      60             0.4446000    0.813682957883

     25   S      61             0.1220000    1.000000000000

     26   P      62             0.7270000    1.000000000000

     27   S      63             0.0297400    1.000000000000

     28   P      64             0.1410000    1.000000000000

 H         

     29   S      65            13.0100000    0.033498726390
     29   S      66             1.9620000    0.234800801174
     29   S      67             0.4446000    0.813682957883

     30   S      68             0.1220000    1.000000000000

     31   P      69             0.7270000    1.000000000000

     32   S      70             0.0297400    1.000000000000

     33   P      71             0.1410000    1.000000000000

 C         

     34   S      72          6665.0000000    0.000691583963
     34   S      73          1000.0000000    0.005325796153
     34   S      74           228.0000000    0.027060721042
     34   S      75            64.7100000    0.101656846141
     34   S      76            21.0600000    0.274574823617
     34   S      77             7.4950000    0.448294318924
     34   S      78             2.7970000    0.284902610715
     34   S      79             0.5215000    0.015194859206

     35   S      80          6665.0000000   -0.000293269653
     35   S      81          1000.0000000   -0.002318035474
     35   S      82           228.0000000   -0.011499786039
     35   S      83            64.7100000   -0.046826727010
     35   S      84            21.0600000   -0.128466168750
     35   S      85             7.4950000   -0.301266272463
     35   S      86             2.7970000   -0.255630702330
     35   S      87             0.5215000    1.093793361012

     36   S      88             0.1596000    1.000000000000

     37   P      89             9.4390000    0.056979251590
     37   P      90             2.0020000    0.313207211501
     37   P      91             0.5456000    0.760376741738

     38   P      92             0.1517000    1.000000000000

     39   D      93             0.5500000    1.000000000000

     40   S      94             0.0469000    1.000000000000

     41   P      95             0.0404100    1.000000000000

     42   D      96             0.1510000    1.000000000000

 C         

     43   S      97          6665.0000000    0.000691583963
     43   S      98          1000.0000000    0.005325796153
     43   S      99           228.0000000    0.027060721042
     43   S     100            64.7100000    0.101656846141
     43   S     101            21.0600000    0.274574823617
     43   S     102             7.4950000    0.448294318924
     43   S     103             2.7970000    0.284902610715
     43   S     104             0.5215000    0.015194859206

     44   S     105          6665.0000000   -0.000293269653
     44   S     106          1000.0000000   -0.002318035474
     44   S     107           228.0000000   -0.011499786039
     44   S     108            64.7100000   -0.046826727010
     44   S     109            21.0600000   -0.128466168750
     44   S     110             7.4950000   -0.301266272463
     44   S     111             2.7970000   -0.255630702330
     44   S     112             0.5215000    1.093793361012

     45   S     113             0.1596000    1.000000000000

     46   P     114             9.4390000    0.056979251590
     46   P     115             2.0020000    0.313207211501
     46   P     116             0.5456000    0.760376741738

     47   P     117             0.1517000    1.000000000000

     48   D     118             0.5500000    1.000000000000

     49   S     119             0.0469000    1.000000000000

     50   P     120             0.0404100    1.000000000000

     51   D     121             0.1510000    1.000000000000

 H         

     52   S     122            13.0100000    0.033498726390
     52   S     123             1.9620000    0.234800801174
     52   S     124             0.4446000    0.813682957883

     53   S     125             0.1220000    1.000000000000

     54   P     126             0.7270000    1.000000000000

     55   S     127             0.0297400    1.000000000000

     56   P     128             0.1410000    1.000000000000

 H         

     57   S     129            13.0100000    0.033498726390
     57   S     130             1.9620000    0.234800801174
     57   S     131             0.4446000    0.813682957883

     58   S     132             0.1220000    1.000000000000

     59   P     133             0.7270000    1.000000000000

     60   S     134             0.0297400    1.000000000000

     61   P     135             0.1410000    1.000000000000

 H         

     62   S     136            13.0100000    0.033498726390
     62   S     137             1.9620000    0.234800801174
     62   S     138             0.4446000    0.813682957883

     63   S     139             0.1220000    1.000000000000

     64   P     140             0.7270000    1.000000000000

     65   S     141             0.0297400    1.000000000000

     66   P     142             0.1410000    1.000000000000

 TOTAL NUMBER OF BASIS SET SHELLS             =   66
 NUMBER OF CARTESIAN GAUSSIAN BASIS FUNCTIONS =  154
 NOTE: THIS RUN WILL RESTRICT THE MO VARIATION SPACE TO SPHERICAL HARMONICS.
 THE NUMBER OF ORBITALS KEPT IN THE VARIATIONAL SPACE WILL BE PRINTED LATER.
 NUMBER OF ELECTRONS                          =   30
 CHARGE OF MOLECULE                           =    0
 SPIN MULTIPLICITY                            =    1
 NUMBER OF OCCUPIED ORBITALS (ALPHA)          =   15
 NUMBER OF OCCUPIED ORBITALS (BETA )          =   15
 TOTAL NUMBER OF ATOMS                        =   10
 THE NUCLEAR REPULSION ENERGY IS      103.3740390520

 SELECTED MURRAY-HANDY-LAMING RADIAL GRID

 LEGACY BECKE'S FUZZY CELL METHOD

 SELECTED ORIGINAL BECKE'S PARTITION FUNCTION

     LEBEDEV GRID-BASED DFT OPTIONS
     ------------------------------
     DFTTYP=B3LYP   
     NRAD  =      96     NLEB  =     302
     NRAD0 =      24     NLEB0 =     110
     SWOFF =    5.00E-03 (PURE SCF -> DFT)
     SWITCH=    3.00E-04 (COARSE -> TIGHT GRID)
     THRESH=    0.00E+00 GTHRE=    1.00E+00

 GRIMME'S EMPIRICAL DISPERSION CORRECTION= F

     $CONTRL OPTIONS
     ---------------
 SCFTYP=UHF          RUNTYP=LMOEDA       EXETYP=RUN     
 MPLEVL=       0     CITYP =NONE         CCTYP =NONE         VBTYP =NONE    
 DFTTYP=B3LYP        TDDFT =NONE    
 MULT  =       1     ICHARG=       0     NZVAR =       0     COORD =UNIQUE  
 PP    =NONE         RELWFN=NONE         LOCAL =NONE         NUMGRD=       F
 ISPHER=       1     NOSYM =       0     MAXIT =      30     UNITS =ANGS    
 PLTORB=       F     MOLPLT=       F     AIMPAC=       F     FRIEND=        
 NPRINT=       7     IREST =       0     GEOM  =INPUT   
 NORMF =       0     NORMP =       0     ITOL  =      20     ICUT  =       9
 INTTYP=BEST         GRDTYP=BEST         QMTTOL= 1.0E-06

     $SYSTEM OPTIONS
     ---------------
  REPLICATED MEMORY=   150000000 WORDS (ON EVERY NODE).
 DISTRIBUTED MEMDDI=         150 MILLION WORDS IN AGGREGATE,
 MEMDDI DISTRIBUTED OVER  16 PROCESSORS IS     9375000 WORDS/PROCESSOR.
 TOTAL MEMORY REQUESTED ON EACH PROCESSOR=   159375000 WORDS.
 TIMLIM=      525600.00 MINUTES, OR     365.0 DAYS.
 PARALL= T  BALTYP=  DLB     KDIAG=    0  COREFL= F
 MXSEQ2=     300 MXSEQ3=     150  mem10=         0  mem22=         0

 Using Gaussians for PCM contribution to MEP, params: 0.10000E+01 0.10000E-07

          ----------------
          PROPERTIES INPUT
          ----------------

     MOMENTS            FIELD           POTENTIAL          DENSITY
 IEMOM =       1   IEFLD =       0   IEPOT =       0   IEDEN =       0
 WHERE =COMASS     WHERE =NUCLEI     WHERE =NUCLEI     WHERE =NUCLEI  
 OUTPUT=BOTH       OUTPUT=BOTH       OUTPUT=BOTH       OUTPUT=BOTH    
 IEMINT=       0   IEFINT=       0                     IEDINT=       0
                                                       MORB  =       0
          EXTRAPOLATION IN EFFECT
          DIIS IN EFFECT
          DIIS or SOSCF will be reset if energy rises
 ORBITAL PRINTING OPTION: NPREO=     1   154     2     1

     -------------------------------
     INTEGRAL TRANSFORMATION OPTIONS
     -------------------------------
     NWORD  =            0
     CUTOFF = 1.0E-09     MPTRAN =       0
     DIRTRF =       F     AOINTS =DUP     

          -----------------------------
          LOCALIZATION INPUT PARAMETERS
          -----------------------------
           LOCAL=RUEDNBRG      NOUTA=       0
          PRTLOC=       F      NOUTB=       0
          MAXLOC=     250     CVGLOC=1.00E-06
           FCORE=       F     SYMLOC=       F
          MOIDON=       F     EDCOMP=       F
          DIPDCM=       F      NPROT=       0
          QADDCM=       F     DEPRNT=       F
          POLNUM=       F     ORIENT=       F
          POLDYN=       F      VMTOL=1.50E-01
          NPRDTL=       2     IBOYAL=       1

          ----------------------
          INTEGRAL INPUT OPTIONS
          ----------------------
 NOPK  =       1 NORDER=       0 SCHWRZ=       T

     ------------------------------------------
     THE POINT GROUP IS C1 , NAXIS= 0, ORDER= 1
     ------------------------------------------

 -- VARIATIONAL SPACE WILL BE RESTRICTED TO PURE SPHERICAL HARMONICS ONLY --
 AFTER EXCLUDING CONTAMINANT COMBINATIONS FROM THE CARTESIAN GAUSSIAN BASIS
 SET, THE NUMBER OF SPHERICAL HARMONICS KEPT IN THE VARIATION SPACE IS  146

     DIMENSIONS OF THE SYMMETRY SUBSPACES ARE
 A   =  146

 ..... DONE SETTING UP THE RUN .....
 CPU     0: STEP CPU TIME=     0.03 TOTAL CPU TIME=          0.0 (      0.0 MIN)
 TOTAL WALL CLOCK TIME=          0.0 SECONDS, CPU UTILIZATION IS    80.02%

          --------------
          GKSEDA OPTIONS
          --------------
          NMOL  =       2          EDATYP=GKS     
          SUPBAS=       T          RDVECM=       F          ITRTN =       T

 *******************
 GKSEDA IS BEGINNING
 *******************

 NMOL =  2

 MONOMER     ATOM   CHARGE ELECTRON MULTIPLE
 -------------------------------------------
       1        5        0       15        2
       2        5        0       15       -2
 -------------------------------------------

 SAVING MOL INFO REQUIRES    598670 WORDS OF MEMORY.

          ********************
          1 ELECTRON INTEGRALS
          ********************
 ...... END OF ONE-ELECTRON INTEGRALS ......
 CPU     0: STEP CPU TIME=     0.01 TOTAL CPU TIME=          0.0 (      0.0 MIN)
 TOTAL WALL CLOCK TIME=          0.0 SECONDS, CPU UTILIZATION IS    81.03%

          -------------
          GUESS OPTIONS
          -------------
          GUESS =HUCKEL            NORB  =       0          NORDER=       0
          MIX   =       F          PRTMO =       F          PUNMO =       F
          TOLZ  = 1.0E-08          TOLE  = 1.0E-05
          SYMDEN=       F          PURIFY=       F

 INITIAL GUESS ORBITALS GENERATED BY HUCKEL   ROUTINE.
 HUCKEL GUESS REQUIRES    180842 WORDS.

 STATISTICS FOR GENERATION OF SYMMETRY ORBITAL -Q- MATRIX
 NUMBER OF CARTESIAN ATOMIC ORBITALS=        154
 NUMBER OF SPHERICAL CONTAMINANTS DROPPED=     8
 NUMBER OF LINEARLY DEPENDENT MOS DROPPED=     0
 TOTAL NUMBER OF MOS IN VARIATION SPACE=     146

 SYMMETRIES FOR INITIAL GUESS ORBITALS FOLLOW.  ALPHA SET(S).
    15 ORBITALS ARE OCCUPIED (    4 CORE ORBITALS).
     5=A        6=A        7=A        8=A        9=A       10=A       11=A   
    12=A       13=A       14=A       15=A       16=A       17=A       18=A   
    19=A       20=A       21=A       22=A       23=A       24=A       25=A   

 SYMMETRIES FOR INITIAL GUESS ORBITALS FOLLOW.   BETA SET(S).
    15 ORBITALS ARE OCCUPIED (    4 CORE ORBITALS).
     5=A        6=A        7=A        8=A        9=A       10=A       11=A   
    12=A       13=A       14=A       15=A       16=A       17=A       18=A   
    19=A       20=A       21=A       22=A       23=A       24=A       25=A   
 ...... END OF INITIAL ORBITAL SELECTION ......
 CPU     0: STEP CPU TIME=     0.01 TOTAL CPU TIME=          0.0 (      0.0 MIN)
 TOTAL WALL CLOCK TIME=          0.1 SECONDS, CPU UTILIZATION IS    85.27%

          -------------------------
          MONOMER  1 WITH OWN BASIS
          -------------------------

     ------------------------------------------
     THE POINT GROUP IS C1 , NAXIS= 0, ORDER= 1
     ------------------------------------------

 -- VARIATIONAL SPACE WILL BE RESTRICTED TO PURE SPHERICAL HARMONICS ONLY --
 AFTER EXCLUDING CONTAMINANT COMBINATIONS FROM THE CARTESIAN GAUSSIAN BASIS
 SET, THE NUMBER OF SPHERICAL HARMONICS KEPT IN THE VARIATION SPACE IS   73

     DIMENSIONS OF THE SYMMETRY SUBSPACES ARE
 A   =   73

          ********************
          1 ELECTRON INTEGRALS
          ********************
 ...... END OF ONE-ELECTRON INTEGRALS ......
 CPU     0: STEP CPU TIME=     0.01 TOTAL CPU TIME=          0.1 (      0.0 MIN)
 TOTAL WALL CLOCK TIME=          0.1 SECONDS, CPU UTILIZATION IS    83.62%

          -------------
          GUESS OPTIONS
          -------------
          GUESS =HUCKEL            NORB  =       0          NORDER=       0
          MIX   =       F          PRTMO =       F          PUNMO =       F
          TOLZ  = 1.0E-08          TOLE  = 1.0E-05
          SYMDEN=       F          PURIFY=       F

 INITIAL GUESS ORBITALS GENERATED BY HUCKEL   ROUTINE.
 HUCKEL GUESS REQUIRES     47410 WORDS.

 STATISTICS FOR GENERATION OF SYMMETRY ORBITAL -Q- MATRIX
 NUMBER OF CARTESIAN ATOMIC ORBITALS=         77
 NUMBER OF SPHERICAL CONTAMINANTS DROPPED=     4
 NUMBER OF LINEARLY DEPENDENT MOS DROPPED=     0
 TOTAL NUMBER OF MOS IN VARIATION SPACE=      73

 SYMMETRIES FOR INITIAL GUESS ORBITALS FOLLOW.  ALPHA SET(S).
     8 ORBITALS ARE OCCUPIED (    2 CORE ORBITALS).
     3=A        4=A        5=A        6=A        7=A        8=A        9=A   
    10=A       11=A       12=A       13=A       14=A       15=A       16=A   
    17=A       18=A   

 SYMMETRIES FOR INITIAL GUESS ORBITALS FOLLOW.   BETA SET(S).
     7 ORBITALS ARE OCCUPIED (    2 CORE ORBITALS).
     3=A        4=A        5=A        6=A        7=A        8=A        9=A   
    10=A       11=A       12=A       13=A       14=A       15=A       16=A   
    17=A   
 ...... END OF INITIAL ORBITAL SELECTION ......
 CPU     0: STEP CPU TIME=     0.00 TOTAL CPU TIME=          0.1 (      0.0 MIN)
 TOTAL WALL CLOCK TIME=          0.1 SECONDS, CPU UTILIZATION IS    84.35%

                    ----------------------
                    AO INTEGRAL TECHNOLOGY
                    ----------------------
     S,P,L SHELL ROTATED AXIS INTEGRALS, REPROGRAMMED BY
        KAZUYA ISHIMURA (IMS) AND JOSE SIERRA (SYNSTAR).
     S,P,D,L SHELL ROTATED AXIS INTEGRALS PROGRAMMED BY
        KAZUYA ISHIMURA (INSTITUTE FOR MOLECULAR SCIENCE).
     S,P,D,F,G SHELL TO TOTAL QUARTET ANGULAR MOMENTUM SUM 5,
        ERIC PROGRAM BY GRAHAM FLETCHER (ELORET AND NASA ADVANCED
        SUPERCOMPUTING DIVISION, AMES RESEARCH CENTER).
     S,P,D,F,G,L SHELL GENERAL RYS QUADRATURE PROGRAMMED BY
        MICHEL DUPUIS (PACIFIC NORTHWEST NATIONAL LABORATORY).

          --------------------
          2 ELECTRON INTEGRALS
          --------------------

 THE -PK- OPTION IS OFF, THE INTEGRALS ARE NOT IN SUPERMATRIX FORM.
 STORING   15000 INTEGRALS/RECORD ON DISK, USING 12 BYTES/INTEGRAL.
 TWO ELECTRON INTEGRAL EVALUATION REQUIRES   90957 WORDS OF MEMORY.
 SCHWARZ INEQUALITY OVERHEAD:      3003 INTEGRALS, T=        0.00
 II,JST,KST,LST =  1  1  1  1 NREC =         1 INTLOC =    1
 II,JST,KST,LST =  2  1  1  1 NREC =         1 INTLOC =    1
 II,JST,KST,LST =  3  1  1  1 NREC =         1 INTLOC =    1
 II,JST,KST,LST =  4  1  1  1 NREC =         1 INTLOC =    1
 II,JST,KST,LST =  5  1  1  1 NREC =         1 INTLOC =    1
 II,JST,KST,LST =  6  1  1  1 NREC =         1 INTLOC =    1
 II,JST,KST,LST =  7  1  1  1 NREC =         1 INTLOC =    4
 II,JST,KST,LST =  8  1  1  1 NREC =         1 INTLOC =  250
 II,JST,KST,LST =  9  1  1  1 NREC =         1 INTLOC =  250
 II,JST,KST,LST = 10  1  1  1 NREC =         1 INTLOC =  250
 II,JST,KST,LST = 11  1  1  1 NREC =         1 INTLOC =  340
 II,JST,KST,LST = 12  1  1  1 NREC =         1 INTLOC =  501
 II,JST,KST,LST = 13  1  1  1 NREC =         1 INTLOC = 1261
 II,JST,KST,LST = 14  1  1  1 NREC =         1 INTLOC = 2407
 II,JST,KST,LST = 15  1  1  1 NREC =         1 INTLOC = 5575
 II,JST,KST,LST = 16  1  1  1 NREC =         1 INTLOC = 5575
 II,JST,KST,LST = 17  1  1  1 NREC =         1 INTLOC = 9067
 II,JST,KST,LST = 18  1  1  1 NREC =         1 INTLOC = 9067
 II,JST,KST,LST = 19  1  1  1 NREC =         2 INTLOC = 3719
 II,JST,KST,LST = 20  1  1  1 NREC =         2 INTLOC = 3719
 II,JST,KST,LST = 21  1  1  1 NREC =         3 INTLOC = 3885
 II,JST,KST,LST = 22  1  1  1 NREC =         5 INTLOC =11593
 II,JST,KST,LST = 23  1  1  1 NREC =         5 INTLOC =11593
 II,JST,KST,LST = 24  1  1  1 NREC =         6 INTLOC =13978
 II,JST,KST,LST = 25  1  1  1 NREC =         7 INTLOC = 2986
 II,JST,KST,LST = 26  1  1  1 NREC =         8 INTLOC = 4579
 II,JST,KST,LST = 27  1  1  1 NREC =        12 INTLOC =10599
 II,JST,KST,LST = 28  1  1  1 NREC =        12 INTLOC =10599
 II,JST,KST,LST = 29  1  1  1 NREC =        13 INTLOC =11808
 II,JST,KST,LST = 30  1  1  1 NREC =        15 INTLOC =11683
 II,JST,KST,LST = 31  1  1  1 NREC =        16 INTLOC = 3790
 II,JST,KST,LST = 32  1  1  1 NREC =        20 INTLOC = 4086
 II,JST,KST,LST = 33  1  1  1 NREC =        20 INTLOC = 4086
 SCHWARZ INEQUALITY TEST SKIPPED           0 INTEGRAL BLOCKS.
 TOTAL NUMBER OF NONZERO TWO-ELECTRON INTEGRALS =             3900961
        270 INTEGRAL RECORDS WERE STORED ON DISK FILE  8.
  ...... END OF TWO-ELECTRON INTEGRALS .....
 CPU     0: STEP CPU TIME=     0.03 TOTAL CPU TIME=          0.1 (      0.0 MIN)
 TOTAL WALL CLOCK TIME=          0.1 SECONDS, CPU UTILIZATION IS    87.21%

          ---------------------------
              U-B3LYP SCF CALCULATION
          ---------------------------

     NUCLEAR ENERGY =        27.8617338516
     MAXIT = 30     NPUNCH=  2     MULT=  2
     EXTRAP=T  DAMP=F  SHIFT=F  RSTRCT=F  DIIS=T  SOSCF=T
         DENSITY MATRIX CONVERGENCE THRESHOLD=  1.00E-05
     COARSE -> FINE DFT GRID SWITCH THRESHOLD=  3.00E-04 (SWITCH IN $DFT)
                   HF -> DFT SWITCH THRESHOLD=  5.00E-03 (SWOFF IN $DFT)
     SOSCF WILL OPTIMIZE     520 ALPHA AND     462 BETA ROTATION ANGLES.
     SOGTOL= 2.500E-01
     MEMORY REQUIRED FOR UHF/ROHF ITERS=    298732 WORDS.

     EXCHANGE FUNCTIONAL   =B88&HFX   
     CORRELATION FUNCTIONAL=LYP88&VWN5
     DFT THRESHOLD         =.690E-08
     GRID CHANGE THRESHOLD =.300E-03
 FOR AN EULER-MACLAURIN QUADRATURE USING  96 RADIAL POINTS:
 SMALLEST GAUSSIAN PRIMITIVE EXPONENT=        0.0297400000 OF TYPE -S-
 ON ATOM NUMBER   3 HAS RADIAL NORMALIZATION=  1.000000
  LARGEST GAUSSIAN PRIMITIVE EXPONENT=     6665.0000000000 OF TYPE -S-
 ON ATOM NUMBER   1 HAS RADIAL NORMALIZATION=  1.000000
 DFT IS SWITCHED OFF, PERFORMING PURE SCF UNTIL SWOFF THRESHOLD IS REACHED.

 ITER EX      TOTAL ENERGY        E CHANGE  DENSITY CHANGE    DIIS ERROR
          * * *   INITIATING DIIS PROCEDURE   * * *
   1  0      -77.1736574507   -77.1736574507   0.501242980   0.354647121
   2  1      -77.3678686704    -0.1942112197   0.154015115   0.054473854
   3  2      -77.3839117355    -0.0160430651   0.031351098   0.026225483
   4  3      -77.3883582607    -0.0044465252   0.022202727   0.011346170
   5  4      -77.3897555743    -0.0013973136   0.013020861   0.008647795
   6  5      -77.3904162058    -0.0006606314   0.024413140   0.008654608
   7  6      -77.3914952853    -0.0010790795   0.063114336   0.008421067
   8  7      -77.3938703134    -0.0023750282   0.117527335   0.006640315
   9  8      -77.3954856624    -0.0016153490   0.074775319   0.002373252
  10  9      -77.3950067138     0.0004789486   0.045276803   0.004401948
  11 10      -77.3955832091    -0.0005764953   0.008540915   0.000825540
  12 11      -77.3956018816    -0.0000186725   0.000248357   0.000082237
 CONVERGED TO SWOFF, SO DFT CALCULATION IS NOW SWITCHED ON.
          * * *   INITIATING DIIS PROCEDURE   * * *
  13 12      -77.8292759056    -0.4336740240   0.398168568   0.061898658
  14 13      -77.8459200700    -0.0166441644   0.062882839   0.016824093
  15 14      -77.8486168435    -0.0026967735   0.024657626   0.012007958
  16 15      -77.8500802587    -0.0014634152   0.051032329   0.007419200
  17 16      -77.8510722255    -0.0009919668   0.009143976   0.003345563
  18 17      -77.8511526266    -0.0000804012   0.006009519   0.001438551
  19 18      -77.8511728013    -0.0000201747   0.002061757   0.000283314
         SWDIIS THRESHOLD HAS BEEN REACHED: SWITCHING DIIS OFF.
          ---------------START SECOND ORDER SCF---------------
  20 19      -77.8511739923    -0.0000011910   0.000139973   0.000023631
  21 20      -77.8511740046    -0.0000000122   0.000155514   0.000024547
  22 21      -77.8511740057    -0.0000000011   0.000064573   0.000020451
  23 22      -77.8511740097    -0.0000000040   0.000009104   0.000002422
  24 23      -77.8511740098    -0.0000000001   0.000012299   0.000002041

          ----------------
          ENERGY CONVERGED
          ----------------
     TIME TO FORM FOCK OPERATORS=       1.2 SECONDS (       0.1 SEC/ITER)
     TIME TO SOLVE SCF EQUATIONS=       0.1 SECONDS (       0.0 SEC/ITER)

 FINAL U-B3LYP ENERGY IS      -77.8511740098 AFTER  24 ITERATIONS
 DFT EXCHANGE + CORRELATION ENERGY =        -9.5243113870
 TOTAL ELECTRON NUMBER             =        15.0000010804

          --------------------
          SPIN SZ   =    0.500
          S-SQUARED =    0.764
          --------------------

  ----- ALPHA SET ----- 

          ------------
          EIGENVECTORS
          ------------

                      1          2          3          4          5
                  -10.2296   -10.2021    -0.7670    -0.5784    -0.4638
                     A          A          A          A          A   
    1  C  1  S    0.011805   1.009645  -0.019603   0.011305  -0.002224
    2  C  1  S   -0.001533   0.022139   0.315920  -0.227818  -0.001366
    3  C  1  S    0.040285  -0.073148   0.096596  -0.321467  -0.036880
    4  C  1  X   -0.000009  -0.000014  -0.000140   0.001635   0.007123
    5  C  1  Y   -0.000026   0.000003   0.008871   0.030909   0.341634
    6  C  1  Z   -0.000995  -0.000367   0.110122   0.209041  -0.207402
    7  C  1  X    0.000054   0.000062   0.000560  -0.000076  -0.000274
    8  C  1  Y   -0.001155  -0.000405   0.022746   0.029892  -0.013247
    9  C  1  Z    0.038918  -0.008921  -0.027490  -0.242900   0.042913
   10  C  1 XX    0.000198  -0.001624  -0.006328   0.001483  -0.001765
   11  C  1 YY    0.000857   0.000822  -0.007484  -0.011213   0.008828
   12  C  1 ZZ   -0.001055   0.000803   0.013813   0.009730  -0.007063
   13  C  1 XY    0.000021   0.000069  -0.000047  -0.000369   0.000128
   14  C  1 XZ    0.000011   0.000016  -0.000011  -0.000041  -0.000171
   15  C  1 YZ    0.000466   0.000097   0.000254   0.002327  -0.005953
   16  C  1  S    0.015144  -0.033656   0.016080   0.137925  -0.063677
   17  C  1  X    0.000041   0.000036  -0.000206   0.000056  -0.001383
   18  C  1  Y    0.000703   0.000754  -0.003733   0.008569  -0.057916
   19  C  1  Z    0.006197  -0.003596  -0.002086   0.011344  -0.010520
   20  C  1 XX   -0.002139   0.004874   0.006074  -0.007013  -0.006886
   21  C  1 YY   -0.004521   0.001571  -0.008116   0.106264  -0.046259
   22  C  1 ZZ    0.006661  -0.006444   0.002042  -0.099251   0.053145
   23  C  1 XY   -0.000063  -0.000087  -0.000589   0.002921  -0.000844
   24  C  1 XZ   -0.000087  -0.000067   0.000661   0.000279   0.002718
   25  C  1 YZ   -0.003000  -0.001168   0.024268   0.023051   0.104689
   26  C  2  S    1.009988  -0.013385  -0.016966  -0.006355  -0.000342
   27  C  2  S    0.022714  -0.001361   0.307261   0.268569  -0.071836
   28  C  2  S   -0.090142   0.024460   0.250545   0.492684  -0.247130
   29  C  2  X    0.000008  -0.000002   0.000194   0.001426   0.004691
   30  C  2  Y    0.000914   0.000106   0.025446   0.097701   0.257808
   31  C  2  Z   -0.000225   0.000906  -0.127859   0.116324   0.161899
   32  C  2  X   -0.000019   0.000018  -0.001174  -0.001268  -0.000238
   33  C  2  Y   -0.003565  -0.001139  -0.057304  -0.097293   0.009353
   34  C  2  Z    0.031043  -0.016840  -0.089681  -0.219241   0.066389
   35  C  2 XX   -0.000831   0.000670  -0.011396  -0.001398  -0.000487
   36  C  2 YY    0.000543   0.000641  -0.004006   0.009831   0.005947
   37  C  2 ZZ    0.000287  -0.001311   0.015402  -0.008434  -0.005461
   38  C  2 XY    0.000026  -0.000002   0.000226   0.000241   0.000060
   39  C  2 XZ    0.000011   0.000005  -0.000133  -0.000145  -0.000224
   40  C  2 YZ    0.000856   0.000059  -0.006321  -0.001663  -0.009707
   41  C  2  S   -0.028797   0.019535  -0.019103  -0.117013   0.025880
   42  C  2  X   -0.000029  -0.000023   0.000086  -0.000431   0.000435
   43  C  2  Y   -0.001378  -0.001315  -0.000587  -0.026738   0.018019
   44  C  2  Z    0.004278  -0.005678   0.006282   0.005102  -0.014047
   45  C  2 XX    0.005963  -0.001061  -0.006584   0.006165   0.001288
   46  C  2 YY    0.004219  -0.001771  -0.018052  -0.060471  -0.007974
   47  C  2 ZZ   -0.010183   0.002833   0.024636   0.054305   0.006687
   48  C  2 XY   -0.000041  -0.000020   0.000004  -0.001329  -0.000208
   49  C  2 XZ   -0.000074  -0.000037   0.000335  -0.000461   0.000495
   50  C  2 YZ   -0.004056  -0.001175   0.008684  -0.019324   0.014445
   51  H  3  S   -0.000638  -0.000123   0.125832   0.256935   0.195167
   52  H  3  S    0.021333   0.007274   0.065493   0.271195   0.106331
   53  H  3  X    0.000024   0.000001  -0.000188  -0.000193  -0.000019
   54  H  3  Y    0.001722   0.000009  -0.013058  -0.016864  -0.005975
   55  H  3  Z    0.000685   0.000167  -0.011143  -0.009592  -0.005174
   56  H  3  S    0.001240   0.001878   0.004101   0.025841   0.010708
   57  H  3  X   -0.000097  -0.000026  -0.000191  -0.000358  -0.000099
   58  H  3  Y   -0.007730  -0.002270  -0.007899  -0.042724  -0.011515
   59  H  3  Z   -0.002031  -0.000893  -0.017314  -0.028787  -0.010264
   60  H  4  S   -0.000320  -0.000866   0.115666  -0.231298  -0.140306
   61  H  4  S    0.017789   0.021851  -0.011077  -0.221813  -0.193985
   62  H  4  X   -0.000007  -0.000051   0.000429  -0.000557  -0.000099
   63  H  4  Y   -0.000201  -0.001546   0.014142  -0.016961   0.000818
   64  H  4  Z   -0.000634  -0.001050   0.012611  -0.005700  -0.009973
   65  H  4  S    0.001736   0.001967  -0.000157  -0.013202  -0.041253
   66  H  4  X    0.000149   0.000215  -0.000322  -0.001213  -0.001550
   67  H  4  Y    0.004772   0.006743  -0.009147  -0.020632  -0.047940
   68  H  4  Z    0.002557   0.003045   0.008373  -0.035513   0.011714
   69  H  5  S   -0.000201  -0.000902   0.127206  -0.203255   0.339460
   70  H  5  S    0.009386   0.018851   0.017097  -0.224978   0.436290
   71  H  5  X   -0.000004   0.000024  -0.000265   0.000332  -0.000149
   72  H  5  Y   -0.000068   0.001512  -0.014611   0.016715  -0.010150
   73  H  5  Z   -0.000430  -0.000925   0.011207  -0.004791   0.004905
   74  H  5  S    0.001739   0.001215   0.002153  -0.013792   0.044464
   75  H  5  X   -0.000054  -0.000114   0.000182   0.000175  -0.001027
   76  H  5  Y   -0.002373  -0.005991  -0.000270   0.020258  -0.073391
   77  H  5  Z    0.001934   0.002905  -0.001635  -0.054168   0.040683

                      6          7          8          9         10
                   -0.4134    -0.2849    -0.2747    -0.0200    -0.0020
                     A          A          A          A          A   
    1  C  1  S   -0.000040  -0.000059   0.000491   0.000001  -0.002922
    2  C  1  S   -0.037925  -0.001059   0.050151   0.001835   0.084669
    3  C  1  S   -0.167241   0.000511   0.026867   0.004097   0.342913
    4  C  1  X   -0.008425   0.391543   0.010007   0.404193  -0.000099
    5  C  1  Y   -0.253498  -0.005559  -0.137197  -0.010188   0.030922
    6  C  1  Z   -0.319961  -0.006696   0.114213  -0.001524  -0.095926
    7  C  1  X    0.000950   0.215859   0.008096   0.338559  -0.001024
    8  C  1  Y    0.061946  -0.006587   0.033748  -0.008164   0.041246
    9  C  1  Z   -0.088218  -0.000641  -0.019871  -0.000829  -0.284025
   10  C  1 XX   -0.001189  -0.000030   0.000389   0.000010   0.000940
   11  C  1 YY    0.010137   0.000062  -0.000990  -0.000026  -0.002784
   12  C  1 ZZ   -0.008948  -0.000033   0.000601   0.000016   0.001844
   13  C  1 XY    0.000437   0.000719   0.000133   0.000091  -0.000079
   14  C  1 XZ    0.000242   0.021597   0.001606  -0.030091   0.000034
   15  C  1 YZ    0.014049  -0.001605   0.040380   0.000424   0.001501
   16  C  1  S   -0.036504  -0.004725   0.159193   0.000789   1.284967
   17  C  1  X    0.001074   0.028824   0.001577   0.560265  -0.001255
   18  C  1  Y    0.052645  -0.001300   0.020506  -0.013505   0.037859
   19  C  1  Z   -0.013538  -0.001491   0.040794  -0.002658  -0.302363
   20  C  1 XX   -0.000156   0.000297  -0.005831  -0.000200  -0.039481
   21  C  1 YY   -0.042559  -0.001277   0.030524   0.000102   0.024209
   22  C  1 ZZ    0.042715   0.000980  -0.024693   0.000098   0.015272
   23  C  1 XY   -0.002012   0.004586   0.000680  -0.003180   0.001612
   24  C  1 XZ   -0.001030   0.003812  -0.000879  -0.041937   0.001259
   25  C  1 YZ   -0.053506   0.000792  -0.034050   0.001552   0.027172
   26  C  2  S   -0.000765  -0.000022  -0.000660  -0.000021  -0.002479
   27  C  2  S    0.033692   0.005431  -0.151998  -0.001379   0.056307
   28  C  2  S   -0.053825   0.011030  -0.315337  -0.002946   0.364541
   29  C  2  X   -0.001882   0.442447   0.024424  -0.412367   0.000804
   30  C  2  Y    0.038904  -0.023492   0.470459   0.007028   0.044927
   31  C  2  Z    0.374781   0.011541  -0.259914  -0.000419   0.082495
   32  C  2  X   -0.001990   0.256267   0.014331  -0.348723   0.001080
   33  C  2  Y   -0.064029  -0.012107   0.235950   0.005316   0.100655
   34  C  2  Z    0.050024   0.008306  -0.222390  -0.000000  -0.009805
   35  C  2 XX   -0.001473   0.000060  -0.004706   0.000031  -0.001712
   36  C  2 YY    0.011222   0.000098   0.000276  -0.000011  -0.004913
   37  C  2 ZZ   -0.009749  -0.000157   0.004430  -0.000021   0.006624
   38  C  2 XY    0.000242  -0.000483  -0.000044  -0.000054  -0.000074
   39  C  2 XZ    0.000441  -0.020365  -0.000256  -0.032068  -0.000041
   40  C  2 YZ    0.017405  -0.000103   0.020388   0.000908  -0.003751
   41  C  2  S   -0.017220   0.008635  -0.262977   0.001120   0.877055
   42  C  2  X   -0.000530   0.031411   0.001683  -0.511839   0.003556
   43  C  2  Y   -0.036305  -0.001237   0.022330   0.009715   0.189594
   44  C  2  Z   -0.014439  -0.000253   0.007588  -0.001663   0.137972
   45  C  2 XX   -0.003466  -0.000385   0.007294   0.000451  -0.039284
   46  C  2 YY   -0.036673   0.000808  -0.023676  -0.000487  -0.012472
   47  C  2 ZZ    0.040140  -0.000423   0.016383   0.000036   0.051756
   48  C  2 XY   -0.000188  -0.001353  -0.000615   0.008364   0.000426
   49  C  2 XZ   -0.000129  -0.007207  -0.000475  -0.037885   0.000750
   50  C  2 YZ   -0.016904   0.000296  -0.010718   0.001379   0.031660
   51  H  3  S    0.233353  -0.005774   0.197304   0.002201   0.004235
   52  H  3  S    0.276369  -0.007148   0.250917   0.001866  -0.355614
   53  H  3  X   -0.000198   0.015715   0.000735  -0.020859  -0.000133
   54  H  3  Y   -0.009449  -0.000462   0.006342   0.000382  -0.010811
   55  H  3  Z    0.001297   0.000639  -0.016065  -0.000011  -0.001275
   56  H  3  S    0.036909  -0.000674   0.027878   0.004222  -0.886829
   57  H  3  X   -0.000677   0.015601   0.000435  -0.052961   0.000347
   58  H  3  Y   -0.038867   0.000220  -0.018697   0.001664   0.031111
   59  H  3  Z   -0.034587   0.001095  -0.029167   0.000318   0.032085
   60  H  4  S    0.324309  -0.003809   0.144398  -0.002623   0.007491
   61  H  4  S    0.393526  -0.005001   0.192071  -0.003399  -0.406638
   62  H  4  X    0.000281   0.014419   0.000477   0.021853   0.000269
   63  H  4  Y    0.009447  -0.000367  -0.001183  -0.000532   0.009608
   64  H  4  Z    0.003424  -0.000282   0.005187  -0.000025   0.002236
   65  H  4  S    0.037312  -0.001046   0.039688  -0.004776  -0.643398
   66  H  4  X    0.001838   0.015640   0.001407   0.045715  -0.002117
   67  H  4  Y    0.054947  -0.001436   0.035326  -0.000832  -0.063611
   68  H  4  Z    0.053477  -0.000220   0.003702   0.000542  -0.018381
   69  H  5  S   -0.075370   0.006244  -0.211549  -0.000714   0.003659
   70  H  5  S   -0.187557   0.010112  -0.340254   0.000357  -0.414350
   71  H  5  X   -0.000160   0.014336   0.000465   0.022622  -0.000229
   72  H  5  Y   -0.002974  -0.000327   0.000034  -0.000514  -0.012296
   73  H  5  Z   -0.010918  -0.000115   0.000225  -0.000123   0.003403
   74  H  5  S   -0.044153   0.000998  -0.041820  -0.000887  -1.137827
   75  H  5  X    0.001350   0.012806   0.001254   0.052724   0.000883
   76  H  5  Y    0.051197  -0.001551   0.043633  -0.001647   0.034959
   77  H  5  Z   -0.006282   0.000737  -0.023845  -0.000161  -0.022668

                     11         12         13         14         15
                    0.0149     0.0252     0.0628     0.0711     0.0791
                     A          A          A          A          A   
    1  C  1  S   -0.001333   0.002586  -0.000048   0.007365   0.002744
    2  C  1  S    0.067096  -0.017379   0.000150  -0.013487   0.042804
    3  C  1  S    0.189443  -0.134895   0.004080  -0.384773   0.160001
    4  C  1  X   -0.002848  -0.002947  -0.173097  -0.001695   0.000765
    5  C  1  Y   -0.068811  -0.117471   0.003904   0.038227   0.013873
    6  C  1  Z   -0.036627   0.004824   0.000176   0.013624   0.054985
    7  C  1  X   -0.006107  -0.009087  -0.201938   0.001691   0.000412
    8  C  1  Y   -0.174156  -0.371103   0.005953   0.104214   0.012365
    9  C  1  Z   -0.273804   0.102947   0.009153   0.047532  -0.039032
   10  C  1 XX    0.002760  -0.003175   0.000058  -0.007354  -0.007006
   11  C  1 YY    0.004934  -0.001821  -0.000011   0.001321  -0.010909
   12  C  1 ZZ   -0.007694   0.004996  -0.000047   0.006033   0.017914
   13  C  1 XY    0.000007   0.000009   0.000697   0.000251  -0.000138
   14  C  1 XZ   -0.000021  -0.000097  -0.006013  -0.000296   0.000021
   15  C  1 YZ   -0.004707  -0.003817   0.000265  -0.010549   0.003519
   16  C  1  S    0.459470  -1.844015   0.118871 -10.760520   1.372337
   17  C  1  X   -0.013686  -0.045683   0.629703   0.016190  -0.018123
   18  C  1  Y   -0.223724  -1.932313  -0.026001   0.441168  -0.481465
   19  C  1  Z   -0.534365  -0.418263   0.052729  -4.788809  -1.630452
   20  C  1 XX   -0.010873   0.017403  -0.002092   0.078860   0.023140
   21  C  1 YY    0.021539  -0.052643  -0.000408  -0.156926   0.014671
   22  C  1 ZZ   -0.010666   0.035240   0.002501   0.078067  -0.037810
   23  C  1 XY    0.001137  -0.000801  -0.022818  -0.007009   0.000412
   24  C  1 XZ    0.000078   0.002049  -0.042226   0.000519   0.003581
   25  C  1 YZ   -0.041482   0.097906   0.002563   0.004679   0.107786
   26  C  2  S   -0.001323  -0.000795   0.000277  -0.005537   0.005666
   27  C  2  S   -0.073009   0.048911  -0.000253   0.040560   0.032588
   28  C  2  S   -0.231819   0.258470  -0.017970   0.416923   0.051738
   29  C  2  X   -0.000365  -0.001180  -0.127832  -0.004115   0.001599
   30  C  2  Y   -0.084741  -0.045744   0.004718  -0.143163   0.060446
   31  C  2  Z   -0.026876   0.023784  -0.000493   0.005862  -0.074893
   32  C  2  X   -0.001309   0.001370  -0.144417  -0.002331  -0.002248
   33  C  2  Y   -0.160872   0.103025  -0.001588   0.118457  -0.135051
   34  C  2  Z   -0.243455   0.149470   0.005492   0.054824  -0.054677
   35  C  2 XX   -0.003358   0.001410  -0.000132   0.001667  -0.009818
   36  C  2 YY   -0.001567   0.002252   0.000124  -0.000367  -0.013808
   37  C  2 ZZ    0.004925  -0.003662   0.000008  -0.001300   0.023626
   38  C  2 XY   -0.000041  -0.000025  -0.004031  -0.000030  -0.000077
   39  C  2 XZ    0.000278   0.000203   0.013420   0.000264  -0.000130
   40  C  2 YZ    0.008290   0.007398  -0.000410   0.001672  -0.006997
   41  C  2  S   -0.504496   2.393473  -0.136054  11.066180  -0.168747
   42  C  2  X   -0.003295   0.021111   0.594186   0.018454  -0.001527
   43  C  2  Y   -0.543899   1.029484  -0.013356   0.312733  -0.050349
   44  C  2  Z   -0.602487  -0.261957   0.057611  -4.184801   1.823850
   45  C  2 XX    0.007730  -0.041033   0.002888  -0.076849   0.063381
   46  C  2 YY   -0.063793   0.035337  -0.002175   0.087433  -0.024931
   47  C  2 ZZ    0.056064   0.005696  -0.000713  -0.010584  -0.038450
   48  C  2 XY   -0.001164   0.001376   0.039877   0.003383  -0.002245
   49  C  2 XZ   -0.000838   0.001199   0.014480   0.001593   0.001576
   50  C  2 YZ   -0.070719   0.084268   0.000560   0.062223   0.081678
   51  H  3  S    0.016183   0.014689  -0.000046  -0.023531  -0.021277
   52  H  3  S    0.665886  -0.565004   0.012472  -0.865787   0.199326
   53  H  3  X    0.000191   0.000018   0.005772   0.000235  -0.000122
   54  H  3  Y    0.010421   0.000095  -0.000319   0.009972  -0.008604
   55  H  3  Z    0.008068  -0.000357  -0.000074   0.005168   0.006895
   56  H  3  S    2.536409  -1.455676  -0.037192   3.502745  -0.098405
   57  H  3  X   -0.000956   0.001669  -0.040294   0.001190  -0.001033
   58  H  3  Y   -0.083474   0.138708  -0.001268   0.143176  -0.086092
   59  H  3  Z   -0.019805   0.003788  -0.003846   0.135917  -0.094627
   60  H  4  S   -0.009431   0.012967   0.000458  -0.021247  -0.021756
   61  H  4  S   -0.456787  -0.442201   0.002355   0.596501  -0.329521
   62  H  4  X    0.000188   0.000158   0.003498   0.000033   0.000075
   63  H  4  Y    0.007444   0.002715  -0.000062  -0.000185   0.003457
   64  H  4  Z    0.007269   0.002775   0.000114  -0.010555  -0.011846
   65  H  4  S   -2.068070  -3.105446  -0.002282   0.452245  -1.133647
   66  H  4  X   -0.001569  -0.001718  -0.069872   0.001245   0.000114
   67  H  4  Y   -0.061557  -0.050201   0.002621   0.029366  -0.008738
   68  H  4  Z   -0.009372  -0.054146   0.001477   0.149957   0.026357
   69  H  5  S    0.002713  -0.002739  -0.000218   0.026135  -0.039219
   70  H  5  S   -0.152944   0.862805   0.005653   0.413007   0.089863
   71  H  5  X   -0.000150   0.000017   0.004185   0.000026  -0.000175
   72  H  5  Y   -0.002326   0.004292  -0.000138  -0.001190  -0.006251
   73  H  5  Z    0.003191  -0.007250  -0.000006  -0.002162  -0.014039
   74  H  5  S   -0.455892   3.806326   0.056603  -4.378736   0.531743
   75  H  5  X    0.001420  -0.001246  -0.032229   0.000339  -0.001277
   76  H  5  Y    0.063144  -0.093752  -0.000535  -0.003062  -0.090093
   77  H  5  Z    0.052197   0.068481   0.000973   0.103107   0.038820

                     16         17         18         19         20
                    0.1119     0.1125     0.1166     0.1283     0.1460
                     A          A          A          A          A   
    1  C  1  S    0.006106  -0.000651  -0.038685  -0.014925  -0.014712
    2  C  1  S   -0.057896   0.009778  -0.205112  -0.020562  -0.117731
    3  C  1  S   -0.997644   0.151859   0.314500   0.531015   0.517581
    4  C  1  X   -0.033058  -0.233631  -0.002685   0.005410   0.002145
    5  C  1  Y    0.115653  -0.012241  -0.084080   0.237339   0.033458
    6  C  1  Z    0.003641  -0.000756   0.121035   0.004347   0.127490
    7  C  1  X   -0.040067  -0.181455  -0.001732  -0.027284  -0.000711
    8  C  1  Y   -0.419377   0.071876   0.287056  -0.936676  -0.165547
    9  C  1  Z   -1.212209   0.213697  -1.561628  -0.381040   1.572477
   10  C  1 XX    0.000170  -0.000251   0.019970   0.016473  -0.039473
   11  C  1 YY    0.000029   0.000044   0.003973  -0.007817   0.048558
   12  C  1 ZZ   -0.000199   0.000207  -0.023943  -0.008656  -0.009085
   13  C  1 XY   -0.000336  -0.001277  -0.000412  -0.000745   0.002082
   14  C  1 XZ    0.001489   0.006772  -0.000213   0.000284  -0.000558
   15  C  1 YZ    0.023820  -0.003808  -0.007395   0.008662  -0.016407
   16  C  1  S   -5.695728   0.764735   5.063494   5.296298   0.004032
   17  C  1  X    0.317680   2.210600   0.042521  -0.137800  -0.056115
   18  C  1  Y   -0.359325   0.010554   1.832851  -6.062469  -2.436857
   19  C  1  Z   -3.603150   0.553004  -1.960685   1.687648   0.515471
   20  C  1 XX    0.048766  -0.005804  -0.161359  -0.037967  -0.096924
   21  C  1 YY    0.172324  -0.033845   0.340813   0.191662  -0.668198
   22  C  1 ZZ   -0.221090   0.039649  -0.179454  -0.153695   0.765122
   23  C  1 XY    0.010533   0.032832   0.012836   0.010733  -0.014151
   24  C  1 XZ    0.009030   0.056056   0.002777   0.006805   0.012653
   25  C  1 YZ   -0.056662   0.008110  -0.011110   0.335344   0.311655
   26  C  2  S    0.009093  -0.001165  -0.035691  -0.026038   0.024613
   27  C  2  S    0.112222  -0.016628  -0.111682  -0.098540   0.011664
   28  C  2  S    0.448301  -0.085171   1.269273   0.770338  -2.188852
   29  C  2  X    0.039918   0.237553   0.001249   0.000545  -0.001528
   30  C  2  Y    0.176647  -0.031813  -0.007747   0.002168  -0.097390
   31  C  2  Z    0.056741  -0.008416  -0.085141  -0.008427  -0.068593
   32  C  2  X    0.031658   0.225858   0.001288   0.008227  -0.014302
   33  C  2  Y   -0.377216   0.058900   0.129966   0.414426  -0.505784
   34  C  2  Z   -1.339287   0.226766  -0.908515   0.128875   1.114818
   35  C  2 XX   -0.005036   0.000897   0.005104   0.013122  -0.012037
   36  C  2 YY    0.006242  -0.001048   0.002738  -0.007744   0.018007
   37  C  2 ZZ   -0.001206   0.000152  -0.007842  -0.005378  -0.005969
   38  C  2 XY    0.001007   0.005849  -0.000104  -0.000590   0.000722
   39  C  2 XZ    0.000165   0.003947   0.000055  -0.000427   0.000079
   40  C  2 YZ   -0.015841   0.002164   0.004222  -0.016490   0.001597
   41  C  2  S    4.023969  -0.556840   2.608418  -0.916294  -1.812288
   42  C  2  X   -0.381423  -2.199552  -0.025670   0.062372   0.016206
   43  C  2  Y   -2.758106   0.476457  -0.790599   3.538506   0.693727
   44  C  2  Z   -4.128629   0.626279  -0.174292   2.254990   1.066854
   45  C  2 XX    0.009102  -0.002402  -0.126892  -0.069240  -0.022832
   46  C  2 YY   -0.307651   0.052541  -0.130774   0.044366   0.200317
   47  C  2 ZZ    0.298549  -0.050140   0.257665   0.024874  -0.177484
   48  C  2 XY   -0.014711  -0.060572  -0.000499   0.001286   0.005115
   49  C  2 XZ    0.010012   0.085865   0.002826   0.001830   0.005103
   50  C  2 YZ   -0.242799   0.037930   0.089203   0.137432   0.194384
   51  H  3  S   -0.018926   0.001809   0.013157  -0.087912   0.106067
   52  H  3  S    2.257394  -0.369316  -0.499012  -1.792324   0.590129
   53  H  3  X   -0.000219   0.000732   0.000170   0.000156  -0.000130
   54  H  3  Y   -0.019798   0.003067   0.011271   0.011226  -0.008178
   55  H  3  Z   -0.011368   0.001830  -0.001936   0.015345  -0.005515
   56  H  3  S    6.124053  -0.956286   0.229677  -3.896930  -0.788935
   57  H  3  X    0.008618   0.119556   0.003643   0.001415   0.004669
   58  H  3  Y   -0.617499   0.097630   0.241469   0.286030   0.232191
   59  H  3  Z   -0.372737   0.058987   0.062134   0.159575  -0.139730
   60  H  4  S    0.028449  -0.002855  -0.003877  -0.056550   0.094802
   61  H  4  S   -1.048071   0.197763  -1.702179  -3.133421   0.753559
   62  H  4  X   -0.000261   0.000463  -0.000316  -0.000625  -0.000526
   63  H  4  Y   -0.010811   0.001937  -0.009614  -0.022652  -0.023533
   64  H  4  Z   -0.009302   0.001674  -0.001271  -0.011084   0.005849
   65  H  4  S   -3.882713   0.621380  -0.825350  -5.126277  -1.941128
   66  H  4  X   -0.021604  -0.087149  -0.015252  -0.020234  -0.003706
   67  H  4  Y   -0.324279   0.058167  -0.442437  -0.566960  -0.459173
   68  H  4  Z   -0.301794   0.052061  -0.216211  -0.580622   0.411092
   69  H  5  S   -0.017550   0.003236  -0.017053  -0.020118   0.225168
   70  H  5  S    0.011073   0.027994  -2.706609   1.123960   2.849709
   71  H  5  X   -0.000397  -0.001510   0.000527  -0.000366   0.000316
   72  H  5  Y   -0.008129   0.001161   0.026155  -0.016081   0.011074
   73  H  5  Z    0.000858  -0.000007  -0.013446   0.014629  -0.000221
   74  H  5  S   -1.173323   0.199180  -4.241834   6.612178   2.815021
   75  H  5  X   -0.019606  -0.120626   0.011250  -0.010342   0.007336
   76  H  5  Y   -0.012306  -0.000679   0.667238  -0.423461   0.130601
   77  H  5  Z    0.108922  -0.011885  -0.409736   0.165560   0.435849

                     21         22         23         24         25
                    0.1683     0.1955     0.2193     0.2522     0.2852
                     A          A          A          A          A   
    1  C  1  S    0.049573   0.018165  -0.000043  -0.005020  -0.008493
    2  C  1  S    0.160943   0.009319   0.000872  -0.028196  -0.135158
    3  C  1  S   -2.122620  -0.522633   0.000570   0.705117   0.340383
    4  C  1  X   -0.002769   0.005216   0.001023  -0.003696   0.001666
    5  C  1  Y   -0.062988   0.128918  -0.002429  -0.200428   0.010358
    6  C  1  Z   -0.065927  -0.015773   0.000658   0.076174  -0.010814
    7  C  1  X   -0.000650   0.017082  -0.077446  -0.003552   0.005596
    8  C  1  Y   -0.094488   0.605095   0.004145  -0.211922   0.051109
    9  C  1  Z   -0.997754   1.204904  -0.009993   0.795487   2.300753
   10  C  1 XX    0.014531  -0.024660   0.002594  -0.015087  -0.022988
   11  C  1 YY   -0.005666   0.025113  -0.002444   0.018917  -0.073478
   12  C  1 ZZ   -0.008865  -0.000453  -0.000149  -0.003831   0.096467
   13  C  1 XY   -0.001292   0.002742   0.046952   0.000418  -0.001135
   14  C  1 XZ   -0.000698   0.000723  -0.002235  -0.000836   0.000314
   15  C  1 YZ   -0.037379   0.038474  -0.002673  -0.031324  -0.014322
   16  C  1  S  -18.369209 -20.255682   0.207878 -10.796915   2.167933
   17  C  1  X   -0.020131   0.053117   0.016562  -0.037354  -0.001275
   18  C  1  Y   -0.155242   2.482798  -0.066881  -1.651741  -0.951635
   19  C  1  Z   -6.280837  -5.687046   0.045497  -2.474754   4.004859
   20  C  1 XX    0.181108   0.117402  -0.011002   0.080856  -0.267578
   21  C  1 YY    0.138847  -0.547591   0.015490  -0.239484   0.160157
   22  C  1 ZZ   -0.319955   0.430189  -0.004488   0.158627   0.107421
   23  C  1 XY   -0.000144  -0.022259  -0.169976  -0.004898   0.006688
   24  C  1 XZ    0.008505  -0.007569  -0.022828   0.020874  -0.005834
   25  C  1 YZ    0.435215  -0.228202   0.028658   0.847956   0.216371
   26  C  2  S   -0.045954  -0.016871   0.000053  -0.004431   0.033533
   27  C  2  S   -0.198770  -0.046828  -0.000941  -0.003249   0.160146
   28  C  2  S    1.620658  -0.491982   0.013603  -0.431171  -0.534910
   29  C  2  X    0.001203  -0.002008  -0.041180   0.004972  -0.000033
   30  C  2  Y   -0.038147   0.058862   0.000829   0.290961  -0.038999
   31  C  2  Z   -0.106939  -0.010071  -0.001354   0.024774  -0.253690
   32  C  2  X   -0.000448   0.005561  -0.231716   0.000675   0.018287
   33  C  2  Y   -0.117236   0.816702  -0.017032   0.396998   0.431963
   34  C  2  Z   -1.193161   1.106130  -0.015387   0.812195   1.444573
   35  C  2 XX   -0.016295   0.012131   0.000137   0.014295   0.028236
   36  C  2 YY    0.011624   0.002861  -0.000699  -0.021748   0.020639
   37  C  2 ZZ    0.004671  -0.014992   0.000562   0.007453  -0.048875
   38  C  2 XY    0.000197   0.000520   0.022490  -0.000716  -0.000611
   39  C  2 XZ    0.000439  -0.000782   0.008967   0.000225  -0.000482
   40  C  2 YZ    0.016925  -0.052868   0.001853   0.009901  -0.005733
   41  C  2  S   18.675856  20.384580  -0.206348  11.448009  -3.900301
   42  C  2  X   -0.016048  -0.020147  -0.173004   0.029575   0.016883
   43  C  2  Y   -1.649368  -1.000639   0.010836   1.525084   1.287166
   44  C  2  Z   -6.117396  -5.107799   0.027203  -2.579814   1.507485
   45  C  2 XX   -0.183877  -0.157366   0.014189  -0.011285   0.185152
   46  C  2 YY   -0.157287   0.204969  -0.010061   0.206062   0.178311
   47  C  2 ZZ    0.341164  -0.047603  -0.004128  -0.194777  -0.363464
   48  C  2 XY   -0.003066   0.015249   0.250199   0.000762   0.003264
   49  C  2 XZ    0.007263  -0.001695  -0.114531   0.013486   0.001582
   50  C  2 YZ    0.332808   0.257124   0.009092   0.609973   0.305166
   51  H  3  S    0.173312  -0.179325   0.006776  -0.092660  -0.020543
   52  H  3  S   -0.334878  -2.974255   0.026776  -2.934034  -2.075440
   53  H  3  X    0.000304  -0.000293  -0.003997   0.000042  -0.000089
   54  H  3  Y    0.013042  -0.002032   0.000420  -0.003750   0.002923
   55  H  3  Z    0.005674  -0.007326   0.000238  -0.004273  -0.010849
   56  H  3  S    3.116336   1.648945   0.011472   0.290800  -2.655457
   57  H  3  X    0.004793   0.018950   0.535368  -0.007167  -0.006574
   58  H  3  Y    0.604323   0.625659  -0.011405  -0.220723   0.677204
   59  H  3  Z    0.163692  -0.206086   0.023939   0.197172   0.269555
   60  H  4  S   -0.160111   0.220059  -0.006874   0.013053   0.021563
   61  H  4  S   -0.565478   3.618775  -0.073054  -0.661967   1.117535
   62  H  4  X    0.000485   0.000115  -0.000485   0.000213   0.000333
   63  H  4  Y    0.020370   0.001235   0.000421   0.000019   0.015775
   64  H  4  Z    0.021474  -0.002010   0.000780   0.024827  -0.008633
   65  H  4  S   -2.020140   0.927914  -0.061716  -0.459525   0.937960
   66  H  4  X    0.008815  -0.003529  -0.722662   0.002602  -0.001587
   67  H  4  Y    0.153284   0.183036   0.012610  -0.329877   0.584605
   68  H  4  Z    0.219386   0.128533   0.020415   0.450159  -0.856504
   69  H  5  S    0.024522  -0.056174   0.002868   0.155274   0.047756
   70  H  5  S    1.526127   0.979470   0.019038   2.779284   1.865780
   71  H  5  X   -0.000466   0.000300   0.003065   0.000326  -0.000245
   72  H  5  Y   -0.016130   0.002103   0.000039   0.016601  -0.012770
   73  H  5  Z   -0.007598   0.016904  -0.001054  -0.017483  -0.017323
   74  H  5  S   -1.447636  -3.018544   0.054307  -0.134599   2.673756
   75  H  5  X   -0.018064   0.023797   0.829575  -0.005447  -0.018733
   76  H  5  Y   -0.479686  -0.029162  -0.031364  -0.029862  -0.815147
   77  H  5  Z   -0.027890   0.597821  -0.025096  -0.492756  -0.896970

                     26         27         28         29         30
                    0.3085     0.3158     0.3553     0.3774     0.4042
                     A          A          A          A          A   
    1  C  1  S   -0.002474  -0.031746  -0.000567  -0.020336   0.040303
    2  C  1  S   -0.010765  -0.133609  -0.000329  -0.060145  -0.016925
    3  C  1  S    0.109501   1.536323   0.025605   1.749900  -2.090885
    4  C  1  X   -0.061621   0.001632  -0.245886   0.007159   0.000356
    5  C  1  Y   -0.010151  -0.135702   0.007717   0.278123   0.054530
    6  C  1  Z   -0.020766  -0.255265  -0.000635  -0.074791  -0.000814
    7  C  1  X   -0.329854   0.030195  -0.973692   0.083973  -0.002596
    8  C  1  Y    0.032317   0.225453   0.029990   3.084719   0.350566
    9  C  1  Z    0.212672   2.455555  -0.004748   1.798339  -1.828078
   10  C  1 XX   -0.003865  -0.027963  -0.000105  -0.013801   0.018380
   11  C  1 YY    0.000465  -0.000216  -0.000042   0.007606   0.009367
   12  C  1 ZZ    0.003400   0.028178   0.000147   0.006196  -0.027747
   13  C  1 XY   -0.034400   0.003556   0.011230  -0.000278  -0.000553
   14  C  1 XZ   -0.018886   0.000890  -0.029474  -0.001100  -0.000526
   15  C  1 YZ   -0.000882  -0.022484   0.000282  -0.049904  -0.010523
   16  C  1  S    0.523409   4.818721   0.072087   0.151271  -6.174713
   17  C  1  X   -0.126117  -0.068543  -1.112680   0.125599   0.027368
   18  C  1  Y   -0.303146  -3.572027   0.051059   4.858728   1.634552
   19  C  1  Z    0.181976   1.438862   0.010724  -0.009111  -1.787046
   20  C  1 XX    0.008393  -0.091460  -0.007890  -0.095332   0.533050
   21  C  1 YY   -0.068186  -0.577359  -0.002161  -0.334867   0.608368
   22  C  1 ZZ    0.059793   0.668819   0.010051   0.430199  -1.141418
   23  C  1 XY    0.508604  -0.054954  -0.226337  -0.010311   0.010344
   24  C  1 XZ    0.032493   0.018237   0.072547   0.010015   0.006047
   25  C  1 YZ    0.068871   1.019334   0.005913   0.257491   0.249666
   26  C  2  S    0.002809   0.029299  -0.000067   0.010164   0.032618
   27  C  2  S    0.011183   0.113277   0.000450   0.027992  -0.011931
   28  C  2  S   -0.149479  -1.597356  -0.010472  -0.597282  -0.291904
   29  C  2  X   -0.110186   0.010722   0.046125   0.000553  -0.004733
   30  C  2  Y    0.004603   0.033850  -0.001007   0.034597  -0.200474
   31  C  2  Z   -0.002464   0.009999  -0.001461  -0.020372   0.036777
   32  C  2  X   -0.656671   0.042632   0.455893  -0.010496  -0.036164
   33  C  2  Y   -0.012339  -0.387926  -0.014555   0.244227  -2.269237
   34  C  2  Z    0.256222   3.133609   0.001813   2.024496  -2.929011
   35  C  2 XX    0.003579   0.029076  -0.000211   0.006781   0.005676
   36  C  2 YY    0.003390   0.052143   0.000110   0.011399  -0.021778
   37  C  2 ZZ   -0.006969  -0.081219   0.000101  -0.018180   0.016102
   38  C  2 XY    0.035425  -0.002221  -0.010450   0.000118  -0.000276
   39  C  2 XZ    0.024028  -0.001968   0.015198   0.000092  -0.000021
   40  C  2 YZ   -0.002394  -0.021805  -0.000477   0.006673  -0.006259
   41  C  2  S   -0.417633  -3.818418  -0.030511   0.597001   0.657477
   42  C  2  X   -0.442069   0.082313   0.540387  -0.024405  -0.044977
   43  C  2  Y    0.239492   2.657862  -0.016265  -0.631329  -2.762776
   44  C  2  Z    0.336478   3.806042   0.004996   0.579999  -1.846804
   45  C  2 XX    0.014966   0.373169  -0.010011   0.127932   0.897768
   46  C  2 YY    0.044151   0.426854   0.009654   0.801316  -0.961064
   47  C  2 ZZ   -0.059117  -0.800023   0.000357  -0.929248   0.063296
   48  C  2 XY   -0.362823   0.031078  -0.176312   0.011627  -0.038425
   49  C  2 XZ   -0.134234   0.031251   0.323576   0.016484   0.004446
   50  C  2 YZ    0.087841   1.156203  -0.001329   0.699724   0.129995
   51  H  3  S   -0.003312  -0.015941  -0.000088   0.059387  -0.033548
   52  H  3  S   -0.255549  -3.176468  -0.005313  -3.335927   6.793992
   53  H  3  X    0.005003  -0.000300   0.000207  -0.000025   0.000012
   54  H  3  Y   -0.000228  -0.000362  -0.000106   0.000240   0.001974
   55  H  3  Z   -0.002836  -0.034727  -0.000111  -0.009229   0.008999
   56  H  3  S   -0.272010  -2.894837  -0.005281  -0.551533   2.999854
   57  H  3  X    1.504933  -0.104986  -0.398117   0.006337  -0.009383
   58  H  3  Y    0.063686   1.083461   0.004442   0.484331  -1.464658
   59  H  3  Z   -0.086294  -1.049028   0.005087   0.746071  -0.850433
   60  H  4  S   -0.006282  -0.049156  -0.000181   0.026250   0.037437
   61  H  4  S   -0.012039  -0.421377  -0.026254   4.389685   0.232139
   62  H  4  X    0.004744  -0.000340  -0.011852   0.000190  -0.000107
   63  H  4  Y   -0.000030  -0.000777   0.000223   0.004895   0.003979
   64  H  4  Z    0.000043   0.003307   0.000130   0.002427   0.000520
   65  H  4  S   -0.107158  -1.284265   0.012979   4.152392   0.247666
   66  H  4  X    1.302270  -0.103559   0.718174   0.018810   0.014171
   67  H  4  Y    0.004292   0.185263  -0.039515  -0.084002  -0.290698
   68  H  4  Z    0.049137   0.764656   0.004126   1.563212  -0.412814
   69  H  5  S    0.002160   0.043845  -0.000476   0.012430   0.024164
   70  H  5  S    0.241983   3.352742  -0.020575  -2.723099   0.396720
   71  H  5  X   -0.006369   0.000659  -0.010015   0.000293  -0.000024
   72  H  5  Y    0.000512   0.008414   0.000462   0.014192   0.000999
   73  H  5  Z   -0.002477  -0.032465  -0.000030  -0.018012   0.001698
   74  H  5  S    0.328319   3.642716  -0.025713  -3.880927  -1.008227
   75  H  5  X   -0.454404   0.037593   1.618042  -0.030688  -0.006268
   76  H  5  Y   -0.030286  -0.568693  -0.035547  -0.379912  -0.196878
   77  H  5  Z    0.025854   0.394829  -0.006607  -0.883235  -0.218374

                     31         32         33         34         35
                    0.4388     0.4445     0.4492     0.4763     0.4815
                     A          A          A          A          A   
    1  C  1  S    0.064942   0.015517  -0.001860   0.024260  -0.005481
    2  C  1  S    0.031173  -0.043534   0.000263  -0.028654   0.001627
    3  C  1  S   -4.244274   0.639375   0.140036  -2.340956   0.401712
    4  C  1  X    0.006419  -0.005991   0.249359   0.002759   0.055691
    5  C  1  Y    0.028722  -0.071262  -0.005550  -0.124291  -0.011980
    6  C  1  Z    0.090589   0.009794   0.001096  -0.023179  -0.012223
    7  C  1  X    0.048848   0.017805   1.827300  -0.050634   0.370715
    8  C  1  Y   -0.559542   1.151522   0.075602  -3.853427   0.119836
    9  C  1  Z    6.050760   3.564543  -0.041490  -1.122335   0.251901
   10  C  1 XX    0.017848  -0.007827   0.000073  -0.012570  -0.000925
   11  C  1 YY   -0.026672  -0.005027  -0.000093   0.013488  -0.001106
   12  C  1 ZZ    0.008824   0.012854   0.000020  -0.000918   0.002031
   13  C  1 XY   -0.000998  -0.000217   0.001807   0.000433   0.004508
   14  C  1 XZ    0.000116  -0.000110  -0.014601  -0.001489   0.030277
   15  C  1 YZ    0.018841   0.010507  -0.001080  -0.007298  -0.003030
   16  C  1  S   -7.051589  -3.884354  -0.148863   3.843691   0.163959
   17  C  1  X    0.019622   0.040046   1.147226   0.006459  -0.133071
   18  C  1  Y   -0.547717   1.598521   0.040833  -0.894031   0.113398
   19  C  1  Z    1.088400   0.316878  -0.062253   0.790863  -0.003182
   20  C  1 XX    0.584204   0.288955  -0.012442  -0.456281  -0.025293
   21  C  1 YY   -1.946786  -0.662097   0.020244   0.559730  -0.191766
   22  C  1 ZZ    1.362582   0.373142  -0.007801  -0.103449   0.217059
   23  C  1 XY   -0.073093  -0.038386  -0.248053   0.031402   0.340912
   24  C  1 XZ   -0.001095  -0.037151  -0.108790   0.046344  -1.416477
   25  C  1 YZ    0.596179  -2.660097  -0.024923  -0.022783  -0.095804
   26  C  2  S    0.061685   0.026548  -0.001997   0.051109   0.007189
   27  C  2  S   -0.002736  -0.031474  -0.001182   0.016815   0.003964
   28  C  2  S   -6.418857  -2.332705   0.141622  -3.950807  -0.831372
   29  C  2  X    0.001400  -0.000958  -0.261518  -0.015888   0.246698
   30  C  2  Y    0.124653   0.063230   0.004388  -0.134250  -0.008489
   31  C  2  Z    0.034352  -0.077129   0.003410  -0.182553  -0.012945
   32  C  2  X   -0.014172   0.038540  -0.701342  -0.075542   1.515684
   33  C  2  Y   -0.694591   3.117934   0.065590  -1.523466  -0.073428
   34  C  2  Z    3.202881   2.518214   0.036852  -2.610282   0.225650
   35  C  2 XX    0.033087  -0.002332  -0.000463  -0.010747   0.001761
   36  C  2 YY   -0.012817   0.027304   0.000347   0.015782   0.001190
   37  C  2 ZZ   -0.020270  -0.024972   0.000116  -0.005034  -0.002952
   38  C  2 XY   -0.000895   0.000356   0.004661   0.000777  -0.003977
   39  C  2 XZ   -0.000533   0.001362  -0.015474  -0.000526  -0.002580
   40  C  2 YZ   -0.020783   0.055355   0.001186   0.011026   0.002175
   41  C  2  S   -0.511236   1.212249   0.265074  -4.857767  -0.230606
   42  C  2  X   -0.006287  -0.009110  -1.193945  -0.041336   0.513306
   43  C  2  Y    0.504078   0.029862   0.008925  -0.214267  -0.078083
   44  C  2  Z   -0.244685  -0.143937  -0.032751   0.170773   0.001044
   45  C  2 XX    0.037112   0.183251  -0.017919  -0.150991   0.039334
   46  C  2 YY    0.506327   1.326884   0.006771   0.097386  -0.006776
   47  C  2 ZZ   -0.543439  -1.510135   0.011148   0.053605  -0.032558
   48  C  2 XY    0.007144   0.003791  -0.663034  -0.030688   0.991780
   49  C  2 XZ    0.018732  -0.035062   1.077164   0.021192   0.338105
   50  C  2 YZ   -0.322322  -0.856467   0.011029  -0.448348   0.005511
   51  H  3  S   -0.089899   0.189294   0.003376   0.115008   0.013772
   52  H  3  S    0.999416  -2.903297  -0.187563   6.571259   0.314267
   53  H  3  X   -0.000499  -0.000144  -0.017505  -0.000348   0.022007
   54  H  3  Y   -0.018752   0.013838   0.000289   0.029555  -0.000030
   55  H  3  Z   -0.020527   0.025192   0.000665   0.001469   0.001062
   56  H  3  S   -0.066891  -0.196253  -0.011396   0.893598   0.092146
   57  H  3  X   -0.006530   0.018548   0.757811  -0.006801  -1.425390
   58  H  3  Y   -0.342135  -0.286014   0.064739  -3.289072  -0.130415
   59  H  3  Z   -0.112952   1.374368   0.000723  -0.828415  -0.118885
   60  H  4  S   -0.044231  -0.084748  -0.004091   0.037954  -0.023195
   61  H  4  S    6.340169   9.195904   0.119852  -6.329172   0.372561
   62  H  4  X    0.000275  -0.000269   0.016943   0.000712  -0.004232
   63  H  4  Y    0.007219  -0.018214  -0.000679   0.003646   0.001030
   64  H  4  Z   -0.005109  -0.010496   0.000649  -0.004073   0.001786
   65  H  4  S    1.468545   1.868003   0.019797  -0.948815   0.020614
   66  H  4  X    0.018116   0.103078  -1.282981  -0.069798  -0.158358
   67  H  4  Y    1.131098   2.960315   0.052988  -1.685782   0.010086
   68  H  4  Z    1.876573   0.075152  -0.008605  -1.277725   0.057801
   69  H  5  S   -0.174383   0.097052   0.003619   0.101750  -0.002402
   70  H  5  S    9.112691  -2.662261  -0.260868   4.879911  -0.230760
   71  H  5  X    0.000093  -0.000879   0.007991   0.000467   0.014135
   72  H  5  Y   -0.006711  -0.005342  -0.000164   0.022072  -0.000544
   73  H  5  Z    0.006501  -0.004190  -0.000684   0.005263  -0.001120
   74  H  5  S    1.519003  -0.460220  -0.061451   0.850758  -0.100984
   75  H  5  X   -0.047988   0.065091  -0.434897  -0.040280  -1.176536
   76  H  5  Y   -2.148691   1.488102   0.103957  -2.617912   0.168259
   77  H  5  Z    1.106297   0.970207  -0.038817   1.410734   0.088055

                     36         37         38         39         40
                    0.4868     0.4944     0.5041     0.5564     0.5637
                     A          A          A          A          A   
    1  C  1  S    0.013756   0.103919  -0.024537   0.077744   0.000916
    2  C  1  S   -0.106348   0.000956  -0.022829   0.017615   0.003874
    3  C  1  S   -1.722909  -8.249119   4.300055  -8.280013  -0.121634
    4  C  1  X    0.010202   0.003577  -0.004143  -0.003418   0.070515
    5  C  1  Y    0.185297  -0.002290  -0.110232  -0.066980   0.000447
    6  C  1  Z   -0.233463   0.331222  -0.073066  -0.155525  -0.001500
    7  C  1  X    0.047055   0.011184  -0.157261  -0.046365   1.337914
    8  C  1  Y   -0.436131  -0.828216  -7.032067  -0.383547   0.080765
    9  C  1  Z   -2.694794  -2.728702   1.261395  -1.622935   0.193721
   10  C  1 XX   -0.009656   0.009690  -0.005010   0.025397   0.001637
   11  C  1 YY    0.011896   0.031925  -0.009204  -0.008009  -0.001369
   12  C  1 ZZ   -0.002240  -0.041615   0.014214  -0.017388  -0.000268
   13  C  1 XY    0.001362   0.000996  -0.000060  -0.001328   0.002933
   14  C  1 XZ    0.001939   0.001694   0.000331   0.000237  -0.056088
   15  C  1 YZ    0.058394  -0.005948   0.012249  -0.026760  -0.000094
   16  C  1  S    3.751891  -5.088088  -4.768635 -14.703450  -0.234245
   17  C  1  X    0.000163  -0.020109  -0.043532   0.004232   0.215405
   18  C  1  Y   -0.212587  -0.589810  -1.896909   0.909549  -0.003854
   19  C  1  Z    0.225080  -0.251856  -0.939668  -4.885337  -0.076170
   20  C  1 XX   -0.222414   0.300174   0.599070  -0.031006   0.044866
   21  C  1 YY    0.456679   2.669936  -0.616932  -1.844991  -0.174173
   22  C  1 ZZ   -0.234264  -2.970110   0.017861   1.875997   0.129307
   23  C  1 XY    0.039680   0.097200   0.020289  -0.105889   1.594490
   24  C  1 XZ   -0.013680  -0.088243  -0.008762  -0.017764   2.233986
   25  C  1 YZ    0.865767   0.466479   0.244008   0.094555  -0.034236
   26  C  2  S   -0.011804  -0.089838  -0.033806  -0.050876   0.000539
   27  C  2  S    0.085915  -0.082933  -0.019133   0.137370   0.003794
   28  C  2  S    2.614475  10.193568   3.013735   2.940462  -0.158060
   29  C  2  X    0.002817   0.011132  -0.001994   0.006591  -0.319127
   30  C  2  Y    0.073965  -0.022584  -0.016360   0.006750   0.004472
   31  C  2  Z   -0.186090   0.188592   0.010460  -0.096944   0.004043
   32  C  2  X    0.013886   0.111422   0.073857   0.015034  -1.467566
   33  C  2  Y   -0.465914   1.025150   3.321237   0.754073   0.059643
   34  C  2  Z   -2.917712  -3.093046   2.462388  -1.474829   0.184770
   35  C  2 XX    0.012055  -0.050778   0.001046   0.011964   0.001816
   36  C  2 YY   -0.015559   0.003898   0.007997  -0.026490  -0.002032
   37  C  2 ZZ    0.003504   0.046879  -0.009043   0.014526   0.000216
   38  C  2 XY    0.000012   0.001260   0.000218  -0.001561   0.027149
   39  C  2 XZ   -0.001172  -0.000236   0.000070   0.000613  -0.033293
   40  C  2 YZ   -0.031479   0.006785   0.011636  -0.012732  -0.000306
   41  C  2  S   -3.602694   5.477114   5.763530  15.680527   0.278653
   42  C  2  X    0.001240   0.032661   0.017249  -0.007803  -0.380091
   43  C  2  Y   -0.157879   0.459273   1.003234  -1.189226   0.008772
   44  C  2  Z    0.293975  -0.728278  -0.667098  -3.829497  -0.033516
   45  C  2 XX    0.228124  -0.338119  -0.034417  -0.376672  -0.001322
   46  C  2 YY    0.341466  -0.587363   1.446340  -0.868920  -0.009975
   47  C  2 ZZ   -0.569590   0.925482  -1.411923   1.245592   0.011297
   48  C  2 XY    0.016411   0.045962   0.039606  -0.020696   0.050390
   49  C  2 XZ    0.023787   0.027671   0.007689  -0.037765   1.886330
   50  C  2 YZ   -0.941543   0.304285  -0.388700   0.976464   0.037081
   51  H  3  S   -0.183673  -0.029868   0.052389  -0.150804  -0.004022
   52  H  3  S    1.873286  -3.930255  -7.422058  -3.084072  -0.218570
   53  H  3  X    0.000353   0.001728   0.000538  -0.001002  -0.001609
[...]
 II,JST,KST,LST =  1  1  1  1 NREC =         1 INTLOC =    1
 II,JST,KST,LST =  2  1  1  1 NREC =         1 INTLOC =    1
 II,JST,KST,LST =  3  1  1  1 NREC =         1 INTLOC =    1
 II,JST,KST,LST =  4  1  1  1 NREC =         1 INTLOC =    1
 II,JST,KST,LST =  5  1  1  1 NREC =         1 INTLOC =    1
 II,JST,KST,LST =  6  1  1  1 NREC =         1 INTLOC =    1
 II,JST,KST,LST =  7  1  1  1 NREC =         1 INTLOC =    4
 II,JST,KST,LST =  8  1  1  1 NREC =         1 INTLOC =   49
 II,JST,KST,LST =  9  1  1  1 NREC =         1 INTLOC =  436
 II,JST,KST,LST = 10  1  1  1 NREC =         1 INTLOC =  436
 II,JST,KST,LST = 11  1  1  1 NREC =         1 INTLOC =  698
 II,JST,KST,LST = 12  1  1  1 NREC =         1 INTLOC =  698
 II,JST,KST,LST = 13  1  1  1 NREC =         1 INTLOC =  698
 II,JST,KST,LST = 14  1  1  1 NREC =         1 INTLOC =  698
 II,JST,KST,LST = 15  1  1  1 NREC =         1 INTLOC = 1610
 II,JST,KST,LST = 16  1  1  1 NREC =         1 INTLOC = 7827
 II,JST,KST,LST = 17  1  1  1 NREC =         1 INTLOC = 7827
 II,JST,KST,LST = 18  1  1  1 NREC =         1 INTLOC = 7827
 II,JST,KST,LST = 19  1  1  1 NREC =         1 INTLOC = 7827
 II,JST,KST,LST = 20  1  1  1 NREC =         3 INTLOC =  892
 II,JST,KST,LST = 21  1  1  1 NREC =         3 INTLOC =  892
 II,JST,KST,LST = 22  1  1  1 NREC =         5 INTLOC =12086
 II,JST,KST,LST = 23  1  1  1 NREC =         5 INTLOC =12086
 II,JST,KST,LST = 24  1  1  1 NREC =         6 INTLOC = 9109
 II,JST,KST,LST = 25  1  1  1 NREC =         6 INTLOC =13139
 II,JST,KST,LST = 26  1  1  1 NREC =         7 INTLOC = 2147
 II,JST,KST,LST = 27  1  1  1 NREC =         7 INTLOC =13835
 II,JST,KST,LST = 28  1  1  1 NREC =         9 INTLOC = 3777
 II,JST,KST,LST = 29  1  1  1 NREC =        10 INTLOC =  867
 II,JST,KST,LST = 30  1  1  1 NREC =        10 INTLOC = 6120
 II,JST,KST,LST = 31  1  1  1 NREC =        11 INTLOC =12805
 II,JST,KST,LST = 32  1  1  1 NREC =        16 INTLOC = 5604
 II,JST,KST,LST = 33  1  1  1 NREC =        16 INTLOC = 5604
 II,JST,KST,LST = 34  1  1  1 NREC =        19 INTLOC = 5759
 II,JST,KST,LST = 35  1  1  1 NREC =        20 INTLOC =11404
 II,JST,KST,LST = 36  1  1  1 NREC =        21 INTLOC = 4549
 II,JST,KST,LST = 37  1  1  1 NREC =        22 INTLOC = 7290
 II,JST,KST,LST = 38  1  1  1 NREC =        25 INTLOC =  636
 II,JST,KST,LST = 39  1  1  1 NREC =        25 INTLOC =  636
 II,JST,KST,LST = 40  1  1  1 NREC =        31 INTLOC = 4426
 II,JST,KST,LST = 41  1  1  1 NREC =        33 INTLOC =  118
 II,JST,KST,LST = 42  1  1  1 NREC =        36 INTLOC =  861
 II,JST,KST,LST = 43  1  1  1 NREC =        52 INTLOC =12762
 II,JST,KST,LST = 44  1  1  1 NREC =        52 INTLOC =12762
 II,JST,KST,LST = 45  1  1  1 NREC =        55 INTLOC = 6696
 II,JST,KST,LST = 46  1  1  1 NREC =        58 INTLOC = 2154
 II,JST,KST,LST = 47  1  1  1 NREC =        62 INTLOC = 4689
 II,JST,KST,LST = 48  1  1  1 NREC =        74 INTLOC = 3486
 II,JST,KST,LST = 49  1  1  1 NREC =       110 INTLOC =  296
 II,JST,KST,LST = 50  1  1  1 NREC =       110 INTLOC =  296
 II,JST,KST,LST = 51  1  1  1 NREC =       116 INTLOC =  423
 II,JST,KST,LST = 52  1  1  1 NREC =       135 INTLOC =    5
 II,JST,KST,LST = 53  1  1  1 NREC =       140 INTLOC =12096
 II,JST,KST,LST = 54  1  1  1 NREC =       152 INTLOC = 3438
 II,JST,KST,LST = 55  1  1  1 NREC =       162 INTLOC = 9954
 II,JST,KST,LST = 56  1  1  1 NREC =       168 INTLOC = 8761
 II,JST,KST,LST = 57  1  1  1 NREC =       177 INTLOC = 4263
 II,JST,KST,LST = 58  1  1  1 NREC =       184 INTLOC = 3485
 II,JST,KST,LST = 59  1  1  1 NREC =       191 INTLOC = 6027
 II,JST,KST,LST = 60  1  1  1 NREC =       208 INTLOC =14285
 II,JST,KST,LST = 61  1  1  1 NREC =       218 INTLOC = 3221
 II,JST,KST,LST = 62  1  1  1 NREC =       233 INTLOC =10278
 II,JST,KST,LST = 63  1  1  1 NREC =       239 INTLOC =  548
 II,JST,KST,LST = 64  1  1  1 NREC =       246 INTLOC =11673
 II,JST,KST,LST = 65  1  1  1 NREC =       271 INTLOC =  379
 II,JST,KST,LST = 66  1  1  1 NREC =       275 INTLOC = 4908
 SCHWARZ INEQUALITY TEST SKIPPED       33568 INTEGRAL BLOCKS.
 TOTAL NUMBER OF NONZERO TWO-ELECTRON INTEGRALS =            66705143
       4455 INTEGRAL RECORDS WERE STORED ON DISK FILE  8.
  ...... END OF TWO-ELECTRON INTEGRALS .....
 CPU     0: STEP CPU TIME=     0.27 TOTAL CPU TIME=         24.9 (      0.4 MIN)
 TOTAL WALL CLOCK TIME=         25.2 SECONDS, CPU UTILIZATION IS    98.54%

          ---------------------------------------------
          MONOMER ELECTROSTATIC INTERACTION (OWN BASIS)
          ---------------------------------------------

          -------------
          GUESS OPTIONS
          -------------
          GUESS =MOSAVED           NORB  =       0          NORDER=       0
          MIX   =       F          PRTMO =       F          PUNMO =       F
          TOLZ  = 1.0E-08          TOLE  = 1.0E-05
          SYMDEN=       F          PURIFY=       F

 INITIAL GUESS ORBITALS GENERATED BY MOSAVED  ROUTINE.

 STATISTICS FOR GENERATION OF SYMMETRY ORBITAL -Q- MATRIX
 NUMBER OF CARTESIAN ATOMIC ORBITALS=        154
 NUMBER OF SPHERICAL CONTAMINANTS DROPPED=     8
 NUMBER OF LINEARLY DEPENDENT MOS DROPPED=     0
 TOTAL NUMBER OF MOS IN VARIATION SPACE=     146
 ...... END OF INITIAL ORBITAL SELECTION ......
 CPU     0: STEP CPU TIME=     0.01 TOTAL CPU TIME=         24.9 (      0.4 MIN)
 TOTAL WALL CLOCK TIME=         25.2 SECONDS, CPU UTILIZATION IS    98.54%

          ---------------------------
                  UHF SCF CALCULATION
          ---------------------------

 FINAL UHF ENERGY IS     -155.2978266605 AFTER   1 ITERATIONS
 ...... END OF UHF CALCULATION ......
 CPU     0: STEP CPU TIME=     0.08 TOTAL CPU TIME=         25.0 (      0.4 MIN)
 TOTAL WALL CLOCK TIME=         25.3 SECONDS, CPU UTILIZATION IS    98.53%

          -------------
          GUESS OPTIONS
          -------------
          GUESS =MOSAVED           NORB  =       0          NORDER=       0
          MIX   =       F          PRTMO =       F          PUNMO =       F
          TOLZ  = 1.0E-08          TOLE  = 1.0E-05
          SYMDEN=       F          PURIFY=       F

 INITIAL GUESS ORBITALS GENERATED BY MOSAVED  ROUTINE.

 STATISTICS FOR GENERATION OF SYMMETRY ORBITAL -Q- MATRIX
 NUMBER OF CARTESIAN ATOMIC ORBITALS=        154
 NUMBER OF SPHERICAL CONTAMINANTS DROPPED=     8
 NUMBER OF LINEARLY DEPENDENT MOS DROPPED=     0
 TOTAL NUMBER OF MOS IN VARIATION SPACE=     146
 ...... END OF INITIAL ORBITAL SELECTION ......
 CPU     0: STEP CPU TIME=     0.00 TOTAL CPU TIME=         25.0 (      0.4 MIN)
 TOTAL WALL CLOCK TIME=         25.3 SECONDS, CPU UTILIZATION IS    98.53%

          ---------------------------
                  UHF SCF CALCULATION
          ---------------------------

 DIRECT SCF CALCULATION, SCHWRZ=T   FDIFF=T
 SCHWARZ INEQUALITY OVERHEAD:     11935 INTEGRALS, T=        0.00

 FINAL UHF ENERGY IS     -332.0728926475 AFTER   1 ITERATIONS
 ...... END OF UHF CALCULATION ......
 CPU     0: STEP CPU TIME=     0.27 TOTAL CPU TIME=         25.2 (      0.4 MIN)
 TOTAL WALL CLOCK TIME=         25.6 SECONDS, CPU UTILIZATION IS    98.52%

 XEDA STEP ENERGY SUMMATION
 ETOT =       -155.29782666     ENUC =        103.37403905
 EEXCH=        -22.94436640

          --------------------------------------------------
          MONOMER EXCHANGE-REPULSION INTERACTION (OWN BASIS)
          --------------------------------------------------

          -------------
          GUESS OPTIONS
          -------------
          GUESS =MOSAVED           NORB  =       0          NORDER=       0
          MIX   =       F          PRTMO =       F          PUNMO =       F
          TOLZ  = 1.0E-08          TOLE  = 1.0E-05
          SYMDEN=       F          PURIFY=       F

 INITIAL GUESS ORBITALS GENERATED BY MOSAVED  ROUTINE.

 STATISTICS FOR GENERATION OF SYMMETRY ORBITAL -Q- MATRIX
 NUMBER OF CARTESIAN ATOMIC ORBITALS=        154
 NUMBER OF SPHERICAL CONTAMINANTS DROPPED=     8
 NUMBER OF LINEARLY DEPENDENT MOS DROPPED=     0
 TOTAL NUMBER OF MOS IN VARIATION SPACE=     146
 ...... END OF INITIAL ORBITAL SELECTION ......
 CPU     0: STEP CPU TIME=     0.01 TOTAL CPU TIME=         25.3 (      0.4 MIN)
 TOTAL WALL CLOCK TIME=         25.6 SECONDS, CPU UTILIZATION IS    98.52%

          ---------------------------
                  UHF SCF CALCULATION
          ---------------------------

 FINAL UHF ENERGY IS     -154.6235247562 AFTER   1 ITERATIONS
 ...... END OF UHF CALCULATION ......
 CPU     0: STEP CPU TIME=     0.08 TOTAL CPU TIME=         25.3 (      0.4 MIN)
 TOTAL WALL CLOCK TIME=         25.7 SECONDS, CPU UTILIZATION IS    98.50%

 XEDA STEP ENERGY SUMMATION
 ETOT =       -154.62352476     ENUC =        103.37403905

          ---------------------------------------------
          MONOMER ELECTROSTATIC INTERACTION (ALL BASIS)
          ---------------------------------------------

          -------------
          GUESS OPTIONS
          -------------
          GUESS =MOSAVED           NORB  =       0          NORDER=       0
          MIX   =       F          PRTMO =       F          PUNMO =       F
          TOLZ  = 1.0E-08          TOLE  = 1.0E-05
          SYMDEN=       F          PURIFY=       F

 INITIAL GUESS ORBITALS GENERATED BY MOSAVED  ROUTINE.

 STATISTICS FOR GENERATION OF SYMMETRY ORBITAL -Q- MATRIX
 NUMBER OF CARTESIAN ATOMIC ORBITALS=        154
 NUMBER OF SPHERICAL CONTAMINANTS DROPPED=     8
 NUMBER OF LINEARLY DEPENDENT MOS DROPPED=     0
 TOTAL NUMBER OF MOS IN VARIATION SPACE=     146
 ...... END OF INITIAL ORBITAL SELECTION ......
 CPU     0: STEP CPU TIME=     0.01 TOTAL CPU TIME=         25.3 (      0.4 MIN)
 TOTAL WALL CLOCK TIME=         25.7 SECONDS, CPU UTILIZATION IS    98.50%

          ---------------------------
                  UHF SCF CALCULATION
          ---------------------------

 FINAL UHF ENERGY IS     -155.3035310705 AFTER   1 ITERATIONS
 ...... END OF UHF CALCULATION ......
 CPU     0: STEP CPU TIME=     0.08 TOTAL CPU TIME=         25.4 (      0.4 MIN)
 TOTAL WALL CLOCK TIME=         25.8 SECONDS, CPU UTILIZATION IS    98.49%

          -------------
          GUESS OPTIONS
          -------------
          GUESS =MOSAVED           NORB  =       0          NORDER=       0
          MIX   =       F          PRTMO =       F          PUNMO =       F
          TOLZ  = 1.0E-08          TOLE  = 1.0E-05
          SYMDEN=       F          PURIFY=       F

 INITIAL GUESS ORBITALS GENERATED BY MOSAVED  ROUTINE.

 STATISTICS FOR GENERATION OF SYMMETRY ORBITAL -Q- MATRIX
 NUMBER OF CARTESIAN ATOMIC ORBITALS=        154
 NUMBER OF SPHERICAL CONTAMINANTS DROPPED=     8
 NUMBER OF LINEARLY DEPENDENT MOS DROPPED=     0
 TOTAL NUMBER OF MOS IN VARIATION SPACE=     146
 ...... END OF INITIAL ORBITAL SELECTION ......
 CPU     0: STEP CPU TIME=     0.01 TOTAL CPU TIME=         25.4 (      0.4 MIN)
 TOTAL WALL CLOCK TIME=         25.8 SECONDS, CPU UTILIZATION IS    98.49%

          ---------------------------
                  UHF SCF CALCULATION
          ---------------------------

 DIRECT SCF CALCULATION, SCHWRZ=T   FDIFF=T
 SCHWARZ INEQUALITY OVERHEAD:     11935 INTEGRALS, T=        0.00

 FINAL UHF ENERGY IS     -332.0963547828 AFTER   1 ITERATIONS
 ...... END OF UHF CALCULATION ......
 CPU     0: STEP CPU TIME=     0.28 TOTAL CPU TIME=         25.7 (      0.4 MIN)
 TOTAL WALL CLOCK TIME=         26.1 SECONDS, CPU UTILIZATION IS    98.48%

 XEDA STEP ENERGY SUMMATION
 ETOT =       -155.30353107     ENUC =        103.37403905
 EEXCH=        -22.94484574

          --------------------------------------------------
          MONOMER EXCHANGE-REPULSION INTERACTION (ALL BASIS)
          --------------------------------------------------

          -------------
          GUESS OPTIONS
          -------------
          GUESS =MOSAVED           NORB  =       0          NORDER=       0
          MIX   =       F          PRTMO =       F          PUNMO =       F
          TOLZ  = 1.0E-08          TOLE  = 1.0E-05
          SYMDEN=       F          PURIFY=       F

 INITIAL GUESS ORBITALS GENERATED BY MOSAVED  ROUTINE.

 STATISTICS FOR GENERATION OF SYMMETRY ORBITAL -Q- MATRIX
 NUMBER OF CARTESIAN ATOMIC ORBITALS=        154
 NUMBER OF SPHERICAL CONTAMINANTS DROPPED=     8
 NUMBER OF LINEARLY DEPENDENT MOS DROPPED=     0
 TOTAL NUMBER OF MOS IN VARIATION SPACE=     146
 ...... END OF INITIAL ORBITAL SELECTION ......
 CPU     0: STEP CPU TIME=     0.01 TOTAL CPU TIME=         25.7 (      0.4 MIN)
 TOTAL WALL CLOCK TIME=         26.1 SECONDS, CPU UTILIZATION IS    98.48%

          ---------------------------
                  UHF SCF CALCULATION
          ---------------------------

 FINAL UHF ENERGY IS     -154.6284720040 AFTER   1 ITERATIONS
 ...... END OF UHF CALCULATION ......
 CPU     0: STEP CPU TIME=     0.08 TOTAL CPU TIME=         25.8 (      0.4 MIN)
 TOTAL WALL CLOCK TIME=         26.2 SECONDS, CPU UTILIZATION IS    98.48%

 XEDA STEP ENERGY SUMMATION
 ETOT =       -154.62847200     ENUC =        103.37403905

          --------------------------------
          RESULTS OF INTERACTION ANALYSIS
          --------------------------------

     ENERGY TERMS
     T   ELECTRON KINETIC AND COULOMB POTENTIAL
     X   E-E EXCHANGE COMBINE WITH DIAGNANAL VALUE
     N   NUCLEUS-NUCLEUS REPULSION ENERGY

 --------------
 MONOMER ENERGY
 --------------

 MONOMER    1

                   OWN BASIS           ALL BASIS

 T              -93.92612710        -93.92617990
 X              -11.31235163        -11.31285395
 N               27.86173385         27.86173385
 EC              -0.47442913         -0.47503777
 E              -77.85117401        -77.85233777

 MONOMER    2

                   OWN BASIS           ALL BASIS

 T              -93.92613206        -93.92618034
 X              -11.31235752        -11.31285930
 N               27.86174622         27.86174622
 EC              -0.47442431         -0.47504704
 E              -77.85116767        -77.85234046

 ------------------------------------------------------------
 SUPER MOLECULE ENERGY  USING NON-ANTISYMMETRIC WAVEFUNCTION
 (ELECTROSTATIC ENERGY: T N CHANGE)
 ------------------------------------------------------------

              FROM OWN BASIS      FROM ALL BASIS
 T             -235.72749931       -235.73272438
 X              -22.62470915        -22.62571325
 N              103.37403905        103.37403905
 E             -154.97816941       -154.98439858

 ----------------------------------------------------------------------
 SUPER MOLECULE ENERGY  USING ANTISYMMETRIC NONORTHONORMAL WAVEFUNCTION
 (EXCHANGE ENERGY: ONLY X CHANGES)
 ----------------------------------------------------------------------

              FROM OWN BASIS      FROM ALL BASIS
 T             -235.72749931       -235.73272438
 X              -22.94436640        -22.94484574
 N              103.37403905        103.37403905
 E             -155.29782666       -155.30353107

 -----------------------------------------------------------------------
 SUPER MOLECULE ENERGY  USING ANTISYMMETRIC AND ORTHONORMAL WAVEFUNCTION
 (REPULSION ENERGY: T X CHANGE)
 -----------------------------------------------------------------------

              FROM OWN BASIS      FROM ALL BASIS
 T+X           -257.99756381       -258.00251106
 N              103.37403905        103.37403905
 E             -154.62352476       -154.62847200

 ---------------------------------------------
 SUPER MOLECULE ENERGY  USING SCF WAVEFUNCTION
 (POLARIZATION ENERGY: T X CHANGE)
 ---------------------------------------------
 T+X           -258.28235783
 N              103.37403905
 EC              -0.98712819
 E             -155.89544697


                   *******************************
                   SUMMARY OF INTERACTION ENERGIES
                     XEDA IN XIAMEN UNIVERSITY    
                    - ZHEN TANG AND PEIFENG SU -  
                   *******************************


 -------------
 OWN BASIS SET                                       HARTREE          KCAL/MOL
 -------------
 ELECTROSTATIC ENERGY                  ES=         -0.224681           -140.99
 EXCHANGE ENERGY                       EX=         -0.319657           -200.59
 REPULSION ENERGY                     REP=          0.674302            423.13
 POLARIZATION ENERGY                  POL=         -0.284794           -178.71
 ELECTRON CORRELATION                CORR=         -0.038275            -24.02
 TOTAL INTERACTION ENERGY               E=         -0.193105           -121.18
  

 -------------
 ALL BASIS SET                                       HARTREE          KCAL/MOL
 -------------
 ELECTROSTATIC ENERGY                  ES=         -0.229805           -144.21
 EXCHANGE ENERGY                       EX=         -0.319132           -200.26
 REPULSION ENERGY                     REP=          0.675059            423.61
 POLARIZATION ENERGY                  POL=         -0.279847           -175.61
 ELECTRON CORRELATION                CORR=         -0.037043            -23.25
 TOTAL INTERACTION ENERGY               E=         -0.190769           -119.71
  

                     ***************************
                     END OF INTERACTION ANALYSIS
                     ***************************

              1301896  WORDS OF DYNAMIC MEMORY USED
 EXECUTION OF GAMESS TERMINATED NORMALLY 14:31:54 25-DEC-2023    
 DDI: 263640 bytes (0.3 MB / 0 MWords) used by master data server.

 ----------------------------------------
 CPU timing information for all processes
 ========================================
 0: 25.114 + 0.685 = 25.800
 1: 24.860 + 0.599 = 25.459
 2: 24.892 + 0.582 = 25.474
 3: 24.858 + 0.637 = 25.495
 4: 24.915 + 0.641 = 25.556
 5: 24.850 + 0.628 = 25.479
 6: 24.918 + 0.586 = 25.504
 7: 24.830 + 0.578 = 25.409
 8: 24.872 + 0.632 = 25.505
 9: 24.862 + 0.565 = 25.428
 10: 24.912 + 0.538 = 25.450
 11: 24.855 + 0.577 = 25.433
 12: 24.893 + 0.616 = 25.509
 13: 24.839 + 0.565 = 25.404
 14: 24.813 + 0.628 = 25.442
 15: 24.873 + 0.563 = 25.437
 ----------------------------------------
 ddikick.x: exited gracefully.
----- accounting info -----
Files used on the master node w013 were:
-rw-r--r-- 1 xacs0647 10000  2703863 Dec 25 14:31 /job_dir/2_1685752/2.dat
-rw-r--r-- 1 xacs0647 10000      238 Dec 25 14:31 /job_dir/2_1685752/2.err
-rw-r--r-- 1 xacs0647 10000      837 Dec 25 14:31 /job_dir/2_1685752/2.F05
-rw-r--r-- 1 xacs0647 10000 53104720 Dec 25 14:31 /job_dir/2_1685752/2.F08
-rw-r--r-- 1 xacs0647 10000 46444128 Dec 25 14:31 /job_dir/2_1685752/2.F08.001
-rw-r--r-- 1 xacs0647 10000 50584496 Dec 25 14:31 /job_dir/2_1685752/2.F08.002
-rw-r--r-- 1 xacs0647 10000 51304560 Dec 25 14:31 /job_dir/2_1685752/2.F08.003
-rw-r--r-- 1 xacs0647 10000 46804160 Dec 25 14:31 /job_dir/2_1685752/2.F08.004
-rw-r--r-- 1 xacs0647 10000 51844608 Dec 25 14:31 /job_dir/2_1685752/2.F08.005
-rw-r--r-- 1 xacs0647 10000 51124544 Dec 25 14:31 /job_dir/2_1685752/2.F08.006
-rw-r--r-- 1 xacs0647 10000 48964352 Dec 25 14:31 /job_dir/2_1685752/2.F08.007
-rw-r--r-- 1 xacs0647 10000 50044448 Dec 25 14:31 /job_dir/2_1685752/2.F08.008
-rw-r--r-- 1 xacs0647 10000 52024624 Dec 25 14:31 /job_dir/2_1685752/2.F08.009
-rw-r--r-- 1 xacs0647 10000 50224464 Dec 25 14:31 /job_dir/2_1685752/2.F08.010
-rw-r--r-- 1 xacs0647 10000 52384656 Dec 25 14:31 /job_dir/2_1685752/2.F08.011
-rw-r--r-- 1 xacs0647 10000 53464752 Dec 25 14:31 /job_dir/2_1685752/2.F08.012
-rw-r--r-- 1 xacs0647 10000 47164192 Dec 25 14:31 /job_dir/2_1685752/2.F08.013
-rw-r--r-- 1 xacs0647 10000 42843808 Dec 25 14:31 /job_dir/2_1685752/2.F08.014
-rw-r--r-- 1 xacs0647 10000 53644768 Dec 25 14:31 /job_dir/2_1685752/2.F08.015
-rw-r--r-- 1 xacs0647 10000  5758720 Dec 25 14:31 /job_dir/2_1685752/2.F10
-rw-r--r-- 1 xacs0647 10000      837 Dec 25 14:31 /job_dir/2_1685752/2.inp
-rw-r--r-- 1 xacs0647 10000  2403540 Dec 25 14:31 /job_dir/2_1685752/2.out
Mon Dec 25 14:31:57 CST 2023
0.094u 0.051s 0:29.36 0.4%	0+0k 0+32io 0pf+0w
