----- GAMESS execution script 'rungms' -----
This job is running on host w016
under operating system Linux at Mon Dec 25 14:31:27 CST 2023
Available scratch disk space (Kbyte units) at beginning of the job is
Filesystem              1K-blocks     Used Available Use% Mounted on
/dev/mapper/system-root 932514944 12974800 919540144   2% /
GAMESS temporary binary files will be written to /job_dir/20_1685744
GAMESS supplementary output files will be written to /job_dir/20_1685744
Copying input file ./20.inp to your run's scratch directory...
 
Assuming a single but multicore node.
 

 Distributed Data Interface kickoff program.
 Initiating 16 compute processes on 1 nodes to run the following command:
 /share/apps/xeda-apps/xeda-td/gamess.00.x 20 

          *******************************************************
          *                                                     *
          *          GAMESS VERSION = 30 SEP 2020 (R2)          *
          *                                                     *
          *              doi.org/10.1063/5.0005188              *
          *                                                     *
          **************** 64 BIT LINUX VERSION *****************

  GAMESS HAS BEEN MADE POSSIBLE WITH IMPORTANT CONTRIBUTIONS FROM
  THE FOLLOWING INDIVIDUALS (IN ALPHABETICAL ORDER):

     IVANA ADAMOVIC, CHRISTINE AIKENS, TOMOKO AKAMA,
     YURI ALEXEEV, YURIKO AOKI, POOJA ARORA, TOSHIO ASADA,
     ANDREY ASADCHEV, KIM K. BALDRIDGE, PRADIPTA BANDYOPADHYAY,
     MARIA BARYSZ, ROB BELL, JONATHAN BENTZ, COLLEEN BERTONI,
     JERRY A. BOATZ, BRETT BODE, KURT BRORSEN, KURT R. BRORSEN,
     LAIMUTIS BYTAUTAS, CALEB CARLIN, LAURA CARRINGTON,
     GALINA CHABAN, BENOIT CHAMPAGNE, WEI CHEN, MAHITO CHIBA,
     DAN CHIPMAN, CHEOL HO CHOI, TANNER CULPITT,
     DIPAYAN DATTA, PAUL DAY, ALBERT DEFUSCO,
     NUWAN DESILVA, J. EMILIANO DEUSTUA,
     TIM DUDLEY, MICHEL DUPUIS, STEVEN T. ELBERT,
     DMITRI FEDOROV, ALEX FINDLATER, GRAHAM FLETCHER,
     MARK FREITAG, CHRISTIAN FRIEDL, DAVID GARMER,
     IGOR S. GERASIMOV, KURT GLAESEMANN, MARK S. GORDON,
     JEFFREY GOUR, FENG LONG GU, EMILIE B. GUIDEZ,
     ANASTASIA GUNINA, SHARON HAMMES-SCHIFFER, MASATAKE HARUTA,
     KIMIHIKO HIRAO, YASUHIRO IKABATA, TZVETELIN IORDANOV,
     STEPHAN IRLE, KAZUYA ISHIMURA, JOE IVANIC, FRANK JENSEN,
     JAN H. JENSEN, VISVALDAS KAIRYS, MUNEAKI KAMIYA,
     MICHIO KATOUDA, NAOAKI KAWAKAMI, DAN KEMP, BERNARD KIRTMAN,
     KAZUO KITAURA, MARIUSZ KLOBUKOWSKI, MASATO KOBAYASHI,
     PRAKASHAN KORAMBATH, JACEK KORCHOWIEC, SHIRO KOSEKI,
     KAROL KOWALSKI, JIMMY KROMANN, STANISLAW KUCHARSKI,
     HENRY KURTZ, SAROM SOK LEANG, HUI LI, SHUHUA LI, WEI LI,
     JESSE LUTZ, ALEKSANDR O. LYKHIN, MARCIN MAKOWSKI,
     JOANI MATO, NIKITA MATSUNAGA, BENEDETTA MENNUCCI,
     GRANT MERRILL, NORIYUKI MINEZAWA, VLADIMIR MIRONOV,
     EISAKU MIYOSHI, JOHN A. MONTGOMERY JR., HIROTOSHI MORI,
     JONATHAN MULLIN, MONIKA MUSIAL, SHIGERU NAGASE,
     TAKESHI NAGATA, HIROMI NAKAI, TAKAHITO NAKAJIMA,
     YUYA NAKAJIMA, HARUYUKI NAKANO, HIROYA NAKATA, SEAN NEDD,
     HEATHER NETZLOFF, KIET A. NGUYEN, YOSHIO NISHIMOTO,
     BOSILJKA NJEGIC, RYAN OLSON, MIKE PAK, ROBERTO PEVERATI,
     BUU PHAM, PIOTR PIECUCH, ANNA POMOGAEVA, DAVID POOLE,
     SPENCER PRUITT, OLIVIER QUINET, LUKE ROSKOP,
     KLAUS RUEDENBERG, ANDREW SAND, TOSAPORN SATTASATHUCHANA,
     NOZOMI SAWADA, MICHAEL W. SCHMIDT, PATRICK E. SCHNEIDER,
     JUNJI SEINO, PRACHI SHARMA, JUN SHEN, JIM SHOEMAKER,
     YINAN SHU, DEJUN SI, JONATHAN SKONE, LYUDMILA SLIPCHENKO,
     TONY SMITH, JIE SONG, MARK SPACKMAN, CASPER STEINMANN,
     WALT STEVENS, PEIFENG SU, SHUJUN SU, CHET SWALINA,
     TETSUYA TAKETSUGU, ZHEN TAO, NANDUN THELLAMUREGE
     SEIKEN TOKURA, JACOPO TOMASI, TSUGUKI TOUMA, TAKAO TSUNEDA,
     HIROAKI UMEDA, JORGE LUIS GALVEZ VALLEJO, YALI WANG,
     SIMON WEBB, AARON WEST, THERESA L. WINDUS, MARTA WLOCH,
     PENG XU, KIYOSHI YAGI, SUSUMU YANAGISAWA, YANG YANG,
     SOOHAENG YOO, TAKESHI YOSHIKAWA, FEDERICO ZAHARIEV,
     TOBY ZENG

  WHO ARE SUPPORTED BY THEIR INSTITUTION/UNIVERSITY/COMPANY/GROUP
  (IN ALPHABETICAL ORDER):

     EP ANALYTICS, FACULTES UNIVERSITAIRES NOTRE-DAME DE LA PAIX,
     INSTITUTE FOR MOLECULAR SCIENCE, IOWA STATE UNIVERSITY,
     JACKSON STATE UNIVERSITY, JOHANNES KEPLER UNIVERSITY LINZ,
     KYUSHU UNIVERSITY, MICHIGAN STATE UNIVERSITY,
     MIE UNIVERSITY, MOSCOW STATE UNIVERSITY,
     N. COPERNICUS UNIVERSITY, NAGOYA UNIVERSITY,
     NANJING UNIVERSITY, NAT. INST. OF ADVANCED INDUSTRIAL
     SCIENCE AND TECHNOLOGY, NATIONAL INST. OF STANDARDS AND
     TECHNOLOGY, NESMEYANOV INSTITUTE OF ORGANOELEMENT COMPOUNDS
     OF RUSSIAN ACADEMY OF SCIENCES, OSAKA PREFECTURE UNIVERSITY,
     PENNSYLVANIA STATE UNIVERSITY, TOKYO INSTITUTE OF TECHNOLOGY,
     UNIVERSITY OF AARHUS, UNIVERSITY OF ALBERTA,
     UNIVERSITY OF CALIFORNIA AT SANTA BARBARA,
     UNIVERSITY OF COPENHAGEN, UNIVERSITY OF IOWA,
     UNIVERSITY OF MEMPHIS, UNIVERSITY OF MINNESOTA,
     UNIVERSITY OF NEBRASKA, UNIVERSITY OF NEW ENGLAND,
     UNIVERSITY OF NOTRE DAME, UNIVERSITY OF PISA,
     UNIVERSITY OF SILESIA, UNIVERSITY OF TOKYO,
     UNIVERSITY OF ZURICH, WASEDA UNIVERSITY, YALE UNIVERSITY

  GAMESS SOFTWARE MANAGEMENT TEAM FOR THIS RELEASE:
     MARK S. GORDON (TEAM LEAD),
     BRETT BODE (SENIOR ADVISOR),
     GIUSEPPE BARCA,
     COLLEEN BERTONI,
     KRISTOPHER KEIPERT (ADVISOR),
     SAROM S. LEANG (DEVELOPMENT LEAD),
     BUU PHAM,
     JORGE LUIS GALVEZ VALLEJO (WEBSITE ADMINISTRATOR),
     PENG XU


 PARALLEL VERSION RUNNING ON       16 PROCESSORS IN        1 NODES.

 EXECUTION OF GAMESS BEGUN 14:31:27 25-DEC-2023    

            ECHO OF THE FIRST FEW INPUT CARDS -
 INPUT CARD> $CONTRL SCFTYP=UHF RUNTYP=EDA dfttyp=B3LYP ispher=1 icharg=0 mult=1 $END       
 INPUT CARD> $SYSTEM  mwords=150 memddi=150 $END                                            
 INPUT CARD> $BASIS gbasis=accd $END                                                        
 INPUT CARD> $LMOEDA MATOM(1)=5 5 MCHARG(1)=0 0 MMULT(1)=2 -2 edatyp=gks $end               
 INPUT CARD> $scf DIIS=.TRUE. ETHRSH=2.0 SWDIIS=0.005 $end                                  
 INPUT CARD> $data                                                                          
 INPUT CARD> EDA calculation with XEDA 1.0                                                  
 INPUT CARD> c1                                                                             
 INPUT CARD>C   6   -0.2733198870    0.7301959129   -1.6174692125                           
 INPUT CARD>C   6   -0.2733198870    0.7301959129   -0.2629423813                           
 INPUT CARD>H   1   -0.2604375051    1.6867982962    0.2743883866                           
 INPUT CARD>H   1   -0.2794337772   -0.1985288973   -2.1961124777                           
 INPUT CARD>H   1   -0.2660962487    1.6590353043   -2.1931414957                           
 INPUT CARD>C   6   -0.2733198870   -0.5157839925    0.5799646240                           
 INPUT CARD>C   6    0.7809928500   -0.9293365378    1.3230337115                           
 INPUT CARD>H   1    1.7182406046   -0.3658828174    1.3615478077                           
 INPUT CARD>H   1    0.7425187762   -1.8458065748    1.9169983794                           
 INPUT CARD>H   1   -1.1908207080   -1.1174480085    0.5673829368                           
 INPUT CARD> $end                                                                           
  150000000 WORDS OF MEMORY AVAILABLE

     BASIS OPTIONS
     -------------
     GBASIS=ACCD         IGAUSS=       0      POLAR=NONE    
     NDFUNC=       0     NFFUNC=       0     DIFFSP=       F
     NPFUNC=       0      DIFFS=       F     BASNAM=        


     RUN TITLE
     ---------
  EDA calculation with XEDA 1.0                                                  

 THE POINT GROUP OF THE MOLECULE IS C1      
 THE ORDER OF THE PRINCIPAL AXIS IS     0

 ATOM      ATOMIC                      COORDINATES (BOHR)
           CHARGE         X                   Y                   Z
 C           6.0    -0.5164996934        1.3798701927       -3.0565736052
 C           6.0    -0.5164996934        1.3798701927       -0.4968890512
 H           1.0    -0.4921555216        3.1875865764        0.5185188649
 H           1.0    -0.5280532706       -0.3751652165       -4.1500508211
 H           1.0    -0.5028489964        3.1351221291       -4.1444364792
 C           6.0    -0.5164996934       -0.9746904147        1.0959742219
 C           6.0     1.4758624849       -1.7561914068        2.5001711873
 H           1.0     3.2470039237       -0.6914182685        2.5729522757
 H           1.0     1.4031570278       -3.4880686527        3.6226016560
 H           1.0    -2.2503248386       -2.1116705416        1.0721982807

          INTERNUCLEAR DISTANCES (ANGS.)
          ------------------------------

                1 C          2 C          3 H          4 H          5 H     

   1 C       0.0000000    1.3545268 *  2.1199951 *  1.0942555 *  1.0927916 *
   2 C       1.3545268 *  0.0000000    1.0972595 *  2.1446943 *  2.1420699 *
   3 H       2.1199951 *  1.0972595 *  0.0000000    3.1077635    2.4676926 *
   4 H       1.0942555 *  2.1446943 *  3.1077635    0.0000000    1.8576145 *
   5 H       1.0927916 *  2.1420699 *  2.4676926 *  1.8576145 *  0.0000000  
   6 C       2.5261000 *  1.5043132 *  2.2237157 *  2.7941532 *  3.5242033  
   7 C       3.5372561    2.5260529 *  3.0047289    3.7473957    4.4899390  
   8 H       3.7472983    2.7940419 *  3.0513247    4.0835838    4.5468343  
   9 H       4.4900087    3.5241820    4.0228579    4.5470421    5.4949496  
  10 H       3.0048585    2.2237437 *  2.9690497 *  3.0515480    4.0229927  

                6 C          7 C          8 H          9 H         10 H     

   1 C       2.5261000 *  3.5372561    3.7472983    4.4900087    3.0048585  
   2 C       1.5043132 *  2.5260529 *  2.7940419 *  3.5241820    2.2237437 *
   3 H       2.2237157 *  3.0047289    3.0513247    4.0228579    2.9690497 *
   4 H       2.7941532 *  3.7473957    4.0835838    4.5470421    3.0515480  
   5 H       3.5242033    4.4899390    4.5468343    5.4949496    4.0229927  
   6 C       0.0000000    1.3545304 *  2.1446808 *  2.1420895 *  1.0972537 *
   7 C       1.3545304 *  0.0000000    1.0942563 *  1.0927907 *  2.1200101 *
   8 H       2.1446808 *  1.0942563 *  0.0000000    1.8576148 *  3.1077622  
   9 H       2.1420895 *  1.0927907 *  1.8576148 *  0.0000000    2.4677459 *
  10 H       1.0972537 *  2.1200101 *  3.1077622    2.4677459 *  0.0000000  

  * ... LESS THAN  3.000


     ATOMIC BASIS SET
     ----------------
 THE CONTRACTED PRIMITIVE FUNCTIONS HAVE BEEN UNNORMALIZED
 THE CONTRACTED BASIS FUNCTIONS ARE NOW NORMALIZED TO UNITY

  SHELL TYPE  PRIMITIVE        EXPONENT          CONTRACTION COEFFICIENT(S)

 C         

      1   S       1          6665.0000000    0.000691583963
      1   S       2          1000.0000000    0.005325796153
      1   S       3           228.0000000    0.027060721042
      1   S       4            64.7100000    0.101656846141
      1   S       5            21.0600000    0.274574823617
      1   S       6             7.4950000    0.448294318924
      1   S       7             2.7970000    0.284902610715
      1   S       8             0.5215000    0.015194859206

      2   S       9          6665.0000000   -0.000293269653
      2   S      10          1000.0000000   -0.002318035474
      2   S      11           228.0000000   -0.011499786039
      2   S      12            64.7100000   -0.046826727010
      2   S      13            21.0600000   -0.128466168750
      2   S      14             7.4950000   -0.301266272463
      2   S      15             2.7970000   -0.255630702330
      2   S      16             0.5215000    1.093793361012

      3   S      17             0.1596000    1.000000000000

      4   P      18             9.4390000    0.056979251590
      4   P      19             2.0020000    0.313207211501
      4   P      20             0.5456000    0.760376741738

      5   P      21             0.1517000    1.000000000000

      6   D      22             0.5500000    1.000000000000

      7   S      23             0.0469000    1.000000000000

      8   P      24             0.0404100    1.000000000000

      9   D      25             0.1510000    1.000000000000

 C         

     10   S      26          6665.0000000    0.000691583963
     10   S      27          1000.0000000    0.005325796153
     10   S      28           228.0000000    0.027060721042
     10   S      29            64.7100000    0.101656846141
     10   S      30            21.0600000    0.274574823617
     10   S      31             7.4950000    0.448294318924
     10   S      32             2.7970000    0.284902610715
     10   S      33             0.5215000    0.015194859206

     11   S      34          6665.0000000   -0.000293269653
     11   S      35          1000.0000000   -0.002318035474
     11   S      36           228.0000000   -0.011499786039
     11   S      37            64.7100000   -0.046826727010
     11   S      38            21.0600000   -0.128466168750
     11   S      39             7.4950000   -0.301266272463
     11   S      40             2.7970000   -0.255630702330
     11   S      41             0.5215000    1.093793361012

     12   S      42             0.1596000    1.000000000000

     13   P      43             9.4390000    0.056979251590
     13   P      44             2.0020000    0.313207211501
     13   P      45             0.5456000    0.760376741738

     14   P      46             0.1517000    1.000000000000

     15   D      47             0.5500000    1.000000000000

     16   S      48             0.0469000    1.000000000000

     17   P      49             0.0404100    1.000000000000

     18   D      50             0.1510000    1.000000000000

 H         

     19   S      51            13.0100000    0.033498726390
     19   S      52             1.9620000    0.234800801174
     19   S      53             0.4446000    0.813682957883

     20   S      54             0.1220000    1.000000000000

     21   P      55             0.7270000    1.000000000000

     22   S      56             0.0297400    1.000000000000

     23   P      57             0.1410000    1.000000000000

 H         

     24   S      58            13.0100000    0.033498726390
     24   S      59             1.9620000    0.234800801174
     24   S      60             0.4446000    0.813682957883

     25   S      61             0.1220000    1.000000000000

     26   P      62             0.7270000    1.000000000000

     27   S      63             0.0297400    1.000000000000

     28   P      64             0.1410000    1.000000000000

 H         

     29   S      65            13.0100000    0.033498726390
     29   S      66             1.9620000    0.234800801174
     29   S      67             0.4446000    0.813682957883

     30   S      68             0.1220000    1.000000000000

     31   P      69             0.7270000    1.000000000000

     32   S      70             0.0297400    1.000000000000

     33   P      71             0.1410000    1.000000000000

 C         

     34   S      72          6665.0000000    0.000691583963
     34   S      73          1000.0000000    0.005325796153
     34   S      74           228.0000000    0.027060721042
     34   S      75            64.7100000    0.101656846141
     34   S      76            21.0600000    0.274574823617
     34   S      77             7.4950000    0.448294318924
     34   S      78             2.7970000    0.284902610715
     34   S      79             0.5215000    0.015194859206

     35   S      80          6665.0000000   -0.000293269653
     35   S      81          1000.0000000   -0.002318035474
     35   S      82           228.0000000   -0.011499786039
     35   S      83            64.7100000   -0.046826727010
     35   S      84            21.0600000   -0.128466168750
     35   S      85             7.4950000   -0.301266272463
     35   S      86             2.7970000   -0.255630702330
     35   S      87             0.5215000    1.093793361012

     36   S      88             0.1596000    1.000000000000

     37   P      89             9.4390000    0.056979251590
     37   P      90             2.0020000    0.313207211501
     37   P      91             0.5456000    0.760376741738

     38   P      92             0.1517000    1.000000000000

     39   D      93             0.5500000    1.000000000000

     40   S      94             0.0469000    1.000000000000

     41   P      95             0.0404100    1.000000000000

     42   D      96             0.1510000    1.000000000000

 C         

     43   S      97          6665.0000000    0.000691583963
     43   S      98          1000.0000000    0.005325796153
     43   S      99           228.0000000    0.027060721042
     43   S     100            64.7100000    0.101656846141
     43   S     101            21.0600000    0.274574823617
     43   S     102             7.4950000    0.448294318924
     43   S     103             2.7970000    0.284902610715
     43   S     104             0.5215000    0.015194859206

     44   S     105          6665.0000000   -0.000293269653
     44   S     106          1000.0000000   -0.002318035474
     44   S     107           228.0000000   -0.011499786039
     44   S     108            64.7100000   -0.046826727010
     44   S     109            21.0600000   -0.128466168750
     44   S     110             7.4950000   -0.301266272463
     44   S     111             2.7970000   -0.255630702330
     44   S     112             0.5215000    1.093793361012

     45   S     113             0.1596000    1.000000000000

     46   P     114             9.4390000    0.056979251590
     46   P     115             2.0020000    0.313207211501
     46   P     116             0.5456000    0.760376741738

     47   P     117             0.1517000    1.000000000000

     48   D     118             0.5500000    1.000000000000

     49   S     119             0.0469000    1.000000000000

     50   P     120             0.0404100    1.000000000000

     51   D     121             0.1510000    1.000000000000

 H         

     52   S     122            13.0100000    0.033498726390
     52   S     123             1.9620000    0.234800801174
     52   S     124             0.4446000    0.813682957883

     53   S     125             0.1220000    1.000000000000

     54   P     126             0.7270000    1.000000000000

     55   S     127             0.0297400    1.000000000000

     56   P     128             0.1410000    1.000000000000

 H         

     57   S     129            13.0100000    0.033498726390
     57   S     130             1.9620000    0.234800801174
     57   S     131             0.4446000    0.813682957883

     58   S     132             0.1220000    1.000000000000

     59   P     133             0.7270000    1.000000000000

     60   S     134             0.0297400    1.000000000000

     61   P     135             0.1410000    1.000000000000

 H         

     62   S     136            13.0100000    0.033498726390
     62   S     137             1.9620000    0.234800801174
     62   S     138             0.4446000    0.813682957883

     63   S     139             0.1220000    1.000000000000

     64   P     140             0.7270000    1.000000000000

     65   S     141             0.0297400    1.000000000000

     66   P     142             0.1410000    1.000000000000

 TOTAL NUMBER OF BASIS SET SHELLS             =   66
 NUMBER OF CARTESIAN GAUSSIAN BASIS FUNCTIONS =  154
 NOTE: THIS RUN WILL RESTRICT THE MO VARIATION SPACE TO SPHERICAL HARMONICS.
 THE NUMBER OF ORBITALS KEPT IN THE VARIATIONAL SPACE WILL BE PRINTED LATER.
 NUMBER OF ELECTRONS                          =   30
 CHARGE OF MOLECULE                           =    0
 SPIN MULTIPLICITY                            =    1
 NUMBER OF OCCUPIED ORBITALS (ALPHA)          =   15
 NUMBER OF OCCUPIED ORBITALS (BETA )          =   15
 TOTAL NUMBER OF ATOMS                        =   10
 THE NUCLEAR REPULSION ENERGY IS      102.3212445765

 SELECTED MURRAY-HANDY-LAMING RADIAL GRID

 LEGACY BECKE'S FUZZY CELL METHOD

 SELECTED ORIGINAL BECKE'S PARTITION FUNCTION

     LEBEDEV GRID-BASED DFT OPTIONS
     ------------------------------
     DFTTYP=B3LYP   
     NRAD  =      96     NLEB  =     302
     NRAD0 =      24     NLEB0 =     110
     SWOFF =    5.00E-03 (PURE SCF -> DFT)
     SWITCH=    3.00E-04 (COARSE -> TIGHT GRID)
     THRESH=    0.00E+00 GTHRE=    1.00E+00

 GRIMME'S EMPIRICAL DISPERSION CORRECTION= F

     $CONTRL OPTIONS
     ---------------
 SCFTYP=UHF          RUNTYP=LMOEDA       EXETYP=RUN     
 MPLEVL=       0     CITYP =NONE         CCTYP =NONE         VBTYP =NONE    
 DFTTYP=B3LYP        TDDFT =NONE    
 MULT  =       1     ICHARG=       0     NZVAR =       0     COORD =UNIQUE  
 PP    =NONE         RELWFN=NONE         LOCAL =NONE         NUMGRD=       F
 ISPHER=       1     NOSYM =       0     MAXIT =      30     UNITS =ANGS    
 PLTORB=       F     MOLPLT=       F     AIMPAC=       F     FRIEND=        
 NPRINT=       7     IREST =       0     GEOM  =INPUT   
 NORMF =       0     NORMP =       0     ITOL  =      20     ICUT  =       9
 INTTYP=BEST         GRDTYP=BEST         QMTTOL= 1.0E-06

     $SYSTEM OPTIONS
     ---------------
  REPLICATED MEMORY=   150000000 WORDS (ON EVERY NODE).
 DISTRIBUTED MEMDDI=         150 MILLION WORDS IN AGGREGATE,
 MEMDDI DISTRIBUTED OVER  16 PROCESSORS IS     9375000 WORDS/PROCESSOR.
 TOTAL MEMORY REQUESTED ON EACH PROCESSOR=   159375000 WORDS.
 TIMLIM=      525600.00 MINUTES, OR     365.0 DAYS.
 PARALL= T  BALTYP=  DLB     KDIAG=    0  COREFL= F
 MXSEQ2=     300 MXSEQ3=     150  mem10=         0  mem22=         0

 Using Gaussians for PCM contribution to MEP, params: 0.10000E+01 0.10000E-07

          ----------------
          PROPERTIES INPUT
          ----------------

     MOMENTS            FIELD           POTENTIAL          DENSITY
 IEMOM =       1   IEFLD =       0   IEPOT =       0   IEDEN =       0
 WHERE =COMASS     WHERE =NUCLEI     WHERE =NUCLEI     WHERE =NUCLEI  
 OUTPUT=BOTH       OUTPUT=BOTH       OUTPUT=BOTH       OUTPUT=BOTH    
 IEMINT=       0   IEFINT=       0                     IEDINT=       0
                                                       MORB  =       0
          EXTRAPOLATION IN EFFECT
          DIIS IN EFFECT
          DIIS or SOSCF will be reset if energy rises
 ORBITAL PRINTING OPTION: NPREO=     1   154     2     1

     -------------------------------
     INTEGRAL TRANSFORMATION OPTIONS
     -------------------------------
     NWORD  =            0
     CUTOFF = 1.0E-09     MPTRAN =       0
     DIRTRF =       F     AOINTS =DUP     

          -----------------------------
          LOCALIZATION INPUT PARAMETERS
          -----------------------------
           LOCAL=RUEDNBRG      NOUTA=       0
          PRTLOC=       F      NOUTB=       0
          MAXLOC=     250     CVGLOC=1.00E-06
           FCORE=       F     SYMLOC=       F
          MOIDON=       F     EDCOMP=       F
          DIPDCM=       F      NPROT=       0
          QADDCM=       F     DEPRNT=       F
          POLNUM=       F     ORIENT=       F
          POLDYN=       F      VMTOL=1.50E-01
          NPRDTL=       2     IBOYAL=       1

          ----------------------
          INTEGRAL INPUT OPTIONS
          ----------------------
 NOPK  =       1 NORDER=       0 SCHWRZ=       T

     ------------------------------------------
     THE POINT GROUP IS C1 , NAXIS= 0, ORDER= 1
     ------------------------------------------

 -- VARIATIONAL SPACE WILL BE RESTRICTED TO PURE SPHERICAL HARMONICS ONLY --
 AFTER EXCLUDING CONTAMINANT COMBINATIONS FROM THE CARTESIAN GAUSSIAN BASIS
 SET, THE NUMBER OF SPHERICAL HARMONICS KEPT IN THE VARIATION SPACE IS  146

     DIMENSIONS OF THE SYMMETRY SUBSPACES ARE
 A   =  146

 ..... DONE SETTING UP THE RUN .....
 CPU     0: STEP CPU TIME=     0.03 TOTAL CPU TIME=          0.0 (      0.0 MIN)
 TOTAL WALL CLOCK TIME=          0.0 SECONDS, CPU UTILIZATION IS    83.25%

          --------------
          GKSEDA OPTIONS
          --------------
          NMOL  =       2          EDATYP=GKS     
          SUPBAS=       T          RDVECM=       F          ITRTN =       T

 *******************
 GKSEDA IS BEGINNING
 *******************

 NMOL =  2

 MONOMER     ATOM   CHARGE ELECTRON MULTIPLE
 -------------------------------------------
       1        5        0       15        2
       2        5        0       15       -2
 -------------------------------------------

 SAVING MOL INFO REQUIRES    598670 WORDS OF MEMORY.

          ********************
          1 ELECTRON INTEGRALS
          ********************
 ...... END OF ONE-ELECTRON INTEGRALS ......
 CPU     0: STEP CPU TIME=     0.01 TOTAL CPU TIME=          0.0 (      0.0 MIN)
 TOTAL WALL CLOCK TIME=          0.0 SECONDS, CPU UTILIZATION IS    84.69%

          -------------
          GUESS OPTIONS
          -------------
          GUESS =HUCKEL            NORB  =       0          NORDER=       0
          MIX   =       F          PRTMO =       F          PUNMO =       F
          TOLZ  = 1.0E-08          TOLE  = 1.0E-05
          SYMDEN=       F          PURIFY=       F

 INITIAL GUESS ORBITALS GENERATED BY HUCKEL   ROUTINE.
 HUCKEL GUESS REQUIRES    180842 WORDS.

 STATISTICS FOR GENERATION OF SYMMETRY ORBITAL -Q- MATRIX
 NUMBER OF CARTESIAN ATOMIC ORBITALS=        154
 NUMBER OF SPHERICAL CONTAMINANTS DROPPED=     8
 NUMBER OF LINEARLY DEPENDENT MOS DROPPED=     0
 TOTAL NUMBER OF MOS IN VARIATION SPACE=     146

 SYMMETRIES FOR INITIAL GUESS ORBITALS FOLLOW.  ALPHA SET(S).
    15 ORBITALS ARE OCCUPIED (    4 CORE ORBITALS).
     5=A        6=A        7=A        8=A        9=A       10=A       11=A   
    12=A       13=A       14=A       15=A       16=A       17=A       18=A   
    19=A       20=A       21=A       22=A       23=A       24=A       25=A   

 SYMMETRIES FOR INITIAL GUESS ORBITALS FOLLOW.   BETA SET(S).
    15 ORBITALS ARE OCCUPIED (    4 CORE ORBITALS).
     5=A        6=A        7=A        8=A        9=A       10=A       11=A   
    12=A       13=A       14=A       15=A       16=A       17=A       18=A   
    19=A       20=A       21=A       22=A       23=A       24=A       25=A   
 ...... END OF INITIAL ORBITAL SELECTION ......
 CPU     0: STEP CPU TIME=     0.01 TOTAL CPU TIME=          0.1 (      0.0 MIN)
 TOTAL WALL CLOCK TIME=          0.1 SECONDS, CPU UTILIZATION IS    88.23%

          -------------------------
          MONOMER  1 WITH OWN BASIS
          -------------------------

     ------------------------------------------
     THE POINT GROUP IS C1 , NAXIS= 0, ORDER= 1
     ------------------------------------------

 -- VARIATIONAL SPACE WILL BE RESTRICTED TO PURE SPHERICAL HARMONICS ONLY --
 AFTER EXCLUDING CONTAMINANT COMBINATIONS FROM THE CARTESIAN GAUSSIAN BASIS
 SET, THE NUMBER OF SPHERICAL HARMONICS KEPT IN THE VARIATION SPACE IS   73

     DIMENSIONS OF THE SYMMETRY SUBSPACES ARE
 A   =   73

          ********************
          1 ELECTRON INTEGRALS
          ********************
 ...... END OF ONE-ELECTRON INTEGRALS ......
 CPU     0: STEP CPU TIME=     0.01 TOTAL CPU TIME=          0.1 (      0.0 MIN)
 TOTAL WALL CLOCK TIME=          0.1 SECONDS, CPU UTILIZATION IS    89.01%

          -------------
          GUESS OPTIONS
          -------------
          GUESS =HUCKEL            NORB  =       0          NORDER=       0
          MIX   =       F          PRTMO =       F          PUNMO =       F
          TOLZ  = 1.0E-08          TOLE  = 1.0E-05
          SYMDEN=       F          PURIFY=       F

 INITIAL GUESS ORBITALS GENERATED BY HUCKEL   ROUTINE.
 HUCKEL GUESS REQUIRES     47410 WORDS.

 STATISTICS FOR GENERATION OF SYMMETRY ORBITAL -Q- MATRIX
 NUMBER OF CARTESIAN ATOMIC ORBITALS=         77
 NUMBER OF SPHERICAL CONTAMINANTS DROPPED=     4
 NUMBER OF LINEARLY DEPENDENT MOS DROPPED=     0
 TOTAL NUMBER OF MOS IN VARIATION SPACE=      73

 SYMMETRIES FOR INITIAL GUESS ORBITALS FOLLOW.  ALPHA SET(S).
     8 ORBITALS ARE OCCUPIED (    2 CORE ORBITALS).
     3=A        4=A        5=A        6=A        7=A        8=A        9=A   
    10=A       11=A       12=A       13=A       14=A       15=A       16=A   
    17=A       18=A   

 SYMMETRIES FOR INITIAL GUESS ORBITALS FOLLOW.   BETA SET(S).
     7 ORBITALS ARE OCCUPIED (    2 CORE ORBITALS).
     3=A        4=A        5=A        6=A        7=A        8=A        9=A   
    10=A       11=A       12=A       13=A       14=A       15=A       16=A   
    17=A   
 ...... END OF INITIAL ORBITAL SELECTION ......
 CPU     0: STEP CPU TIME=     0.00 TOTAL CPU TIME=          0.1 (      0.0 MIN)
 TOTAL WALL CLOCK TIME=          0.1 SECONDS, CPU UTILIZATION IS    89.47%

                    ----------------------
                    AO INTEGRAL TECHNOLOGY
                    ----------------------
     S,P,L SHELL ROTATED AXIS INTEGRALS, REPROGRAMMED BY
        KAZUYA ISHIMURA (IMS) AND JOSE SIERRA (SYNSTAR).
     S,P,D,L SHELL ROTATED AXIS INTEGRALS PROGRAMMED BY
        KAZUYA ISHIMURA (INSTITUTE FOR MOLECULAR SCIENCE).
     S,P,D,F,G SHELL TO TOTAL QUARTET ANGULAR MOMENTUM SUM 5,
        ERIC PROGRAM BY GRAHAM FLETCHER (ELORET AND NASA ADVANCED
        SUPERCOMPUTING DIVISION, AMES RESEARCH CENTER).
     S,P,D,F,G,L SHELL GENERAL RYS QUADRATURE PROGRAMMED BY
        MICHEL DUPUIS (PACIFIC NORTHWEST NATIONAL LABORATORY).

          --------------------
          2 ELECTRON INTEGRALS
          --------------------

 THE -PK- OPTION IS OFF, THE INTEGRALS ARE NOT IN SUPERMATRIX FORM.
 STORING   15000 INTEGRALS/RECORD ON DISK, USING 12 BYTES/INTEGRAL.
 TWO ELECTRON INTEGRAL EVALUATION REQUIRES   90957 WORDS OF MEMORY.
 SCHWARZ INEQUALITY OVERHEAD:      3003 INTEGRALS, T=        0.00
 II,JST,KST,LST =  1  1  1  1 NREC =         1 INTLOC =    1
 II,JST,KST,LST =  2  1  1  1 NREC =         1 INTLOC =    1
 II,JST,KST,LST =  3  1  1  1 NREC =         1 INTLOC =    1
 II,JST,KST,LST =  4  1  1  1 NREC =         1 INTLOC =    1
 II,JST,KST,LST =  5  1  1  1 NREC =         1 INTLOC =    1
 II,JST,KST,LST =  6  1  1  1 NREC =         1 INTLOC =    1
 II,JST,KST,LST =  7  1  1  1 NREC =         1 INTLOC =    4
 II,JST,KST,LST =  8  1  1  1 NREC =         1 INTLOC =   77
 II,JST,KST,LST =  9  1  1  1 NREC =         1 INTLOC =   77
 II,JST,KST,LST = 10  1  1  1 NREC =         1 INTLOC = 1298
 II,JST,KST,LST = 11  1  1  1 NREC =         1 INTLOC = 1298
 II,JST,KST,LST = 12  1  1  1 NREC =         1 INTLOC = 1298
 II,JST,KST,LST = 13  1  1  1 NREC =         1 INTLOC = 1447
 II,JST,KST,LST = 14  1  1  1 NREC =         1 INTLOC = 4995
 II,JST,KST,LST = 15  1  1  1 NREC =         1 INTLOC = 4995
 II,JST,KST,LST = 16  1  1  1 NREC =         1 INTLOC = 7083
 II,JST,KST,LST = 17  1  1  1 NREC =         1 INTLOC = 8219
 II,JST,KST,LST = 18  1  1  1 NREC =         2 INTLOC = 2505
 II,JST,KST,LST = 19  1  1  1 NREC =         2 INTLOC = 2505
 II,JST,KST,LST = 20  1  1  1 NREC =         3 INTLOC = 7692
 II,JST,KST,LST = 21  1  1  1 NREC =         3 INTLOC = 7692
 II,JST,KST,LST = 22  1  1  1 NREC =         4 INTLOC =  195
 II,JST,KST,LST = 23  1  1  1 NREC =         5 INTLOC =  342
 II,JST,KST,LST = 24  1  1  1 NREC =         6 INTLOC =13043
 II,JST,KST,LST = 25  1  1  1 NREC =         6 INTLOC =13043
 II,JST,KST,LST = 26  1  1  1 NREC =         7 INTLOC = 3539
 II,JST,KST,LST = 27  1  1  1 NREC =         8 INTLOC = 5107
 II,JST,KST,LST = 28  1  1  1 NREC =         9 INTLOC = 8000
 II,JST,KST,LST = 29  1  1  1 NREC =        10 INTLOC = 5024
 II,JST,KST,LST = 30  1  1  1 NREC =        11 INTLOC = 7920
 II,JST,KST,LST = 31  1  1  1 NREC =        11 INTLOC =11796
 II,JST,KST,LST = 32  1  1  1 NREC =        16 INTLOC = 2395
 II,JST,KST,LST = 33  1  1  1 NREC =        16 INTLOC = 2395
 SCHWARZ INEQUALITY TEST SKIPPED           0 INTEGRAL BLOCKS.
 TOTAL NUMBER OF NONZERO TWO-ELECTRON INTEGRALS =             3896854
        270 INTEGRAL RECORDS WERE STORED ON DISK FILE  8.
  ...... END OF TWO-ELECTRON INTEGRALS .....
 CPU     0: STEP CPU TIME=     0.03 TOTAL CPU TIME=          0.1 (      0.0 MIN)
 TOTAL WALL CLOCK TIME=          0.1 SECONDS, CPU UTILIZATION IS    88.42%

          ---------------------------
              U-B3LYP SCF CALCULATION
          ---------------------------

     NUCLEAR ENERGY =        27.8948288533
     MAXIT = 30     NPUNCH=  2     MULT=  2
     EXTRAP=T  DAMP=F  SHIFT=F  RSTRCT=F  DIIS=T  SOSCF=T
         DENSITY MATRIX CONVERGENCE THRESHOLD=  1.00E-05
     COARSE -> FINE DFT GRID SWITCH THRESHOLD=  3.00E-04 (SWITCH IN $DFT)
                   HF -> DFT SWITCH THRESHOLD=  5.00E-03 (SWOFF IN $DFT)
     SOSCF WILL OPTIMIZE     520 ALPHA AND     462 BETA ROTATION ANGLES.
     SOGTOL= 2.500E-01
     MEMORY REQUIRED FOR UHF/ROHF ITERS=    298732 WORDS.

     EXCHANGE FUNCTIONAL   =B88&HFX   
     CORRELATION FUNCTIONAL=LYP88&VWN5
     DFT THRESHOLD         =.690E-08
     GRID CHANGE THRESHOLD =.300E-03
 FOR AN EULER-MACLAURIN QUADRATURE USING  96 RADIAL POINTS:
 SMALLEST GAUSSIAN PRIMITIVE EXPONENT=        0.0297400000 OF TYPE -S-
 ON ATOM NUMBER   3 HAS RADIAL NORMALIZATION=  1.000000
  LARGEST GAUSSIAN PRIMITIVE EXPONENT=     6665.0000000000 OF TYPE -S-
 ON ATOM NUMBER   1 HAS RADIAL NORMALIZATION=  1.000000
 DFT IS SWITCHED OFF, PERFORMING PURE SCF UNTIL SWOFF THRESHOLD IS REACHED.

 ITER EX      TOTAL ENERGY        E CHANGE  DENSITY CHANGE    DIIS ERROR
          * * *   INITIATING DIIS PROCEDURE   * * *
   1  0      -77.1747349796   -77.1747349796   0.501528466   0.357383125
   2  1      -77.3688649580    -0.1941299785   0.155482194   0.054238517
   3  2      -77.3849134587    -0.0160485007   0.031261612   0.025941847
   4  3      -77.3893112135    -0.0043977548   0.022056193   0.011242332
   5  4      -77.3906938349    -0.0013826214   0.012891474   0.008525736
   6  5      -77.3913375710    -0.0006437362   0.024743229   0.008509949
   7  6      -77.3924094330    -0.0010718620   0.065973499   0.008234359
   8  7      -77.3947991620    -0.0023897289   0.104415808   0.006239936
   9  8      -77.3962491372    -0.0014499752   0.059080824   0.001685389
  10  9      -77.3958931548     0.0003559824   0.039274321   0.003731225
  11 10      -77.3962993905    -0.0004062357   0.004299048   0.000539518
 CONVERGED TO SWOFF, SO DFT CALCULATION IS NOW SWITCHED ON.
          * * *   INITIATING DIIS PROCEDURE   * * *
  12 11      -77.8305127057    -0.4342133152   0.394446297   0.062416585
  13 12      -77.8469199664    -0.0164072608   0.062033588   0.016558510
  14 13      -77.8495384316    -0.0026184651   0.024622029   0.012036259
  15 14      -77.8509788486    -0.0014404170   0.049865704   0.007293151
  16 15      -77.8519354526    -0.0009566040   0.008997483   0.003192110
  17 16      -77.8520101776    -0.0000747250   0.005744226   0.001456125
  18 17      -77.8520296425    -0.0000194649   0.001970921   0.000281768
         SWDIIS THRESHOLD HAS BEEN REACHED: SWITCHING DIIS OFF.
          ---------------START SECOND ORDER SCF---------------
  19 18      -77.8520307625    -0.0000011200   0.000136098   0.000022713
  20 19      -77.8520307741    -0.0000000116   0.000153641   0.000023309
  21 20      -77.8520307749    -0.0000000008   0.000064892   0.000020060
  22 21      -77.8520307788    -0.0000000038   0.000008573   0.000002262
  23 22      -77.8520307789    -0.0000000001   0.000012970   0.000001849

          ----------------
          ENERGY CONVERGED
          ----------------
     TIME TO FORM FOCK OPERATORS=       1.2 SECONDS (       0.1 SEC/ITER)
     TIME TO SOLVE SCF EQUATIONS=       0.1 SECONDS (       0.0 SEC/ITER)

 FINAL U-B3LYP ENERGY IS      -77.8520307789 AFTER  23 ITERATIONS
 DFT EXCHANGE + CORRELATION ENERGY =        -9.5255697925
 TOTAL ELECTRON NUMBER             =        14.9999928066

          --------------------
          SPIN SZ   =    0.500
          S-SQUARED =    0.764
          --------------------

  ----- ALPHA SET ----- 

          ------------
          EIGENVECTORS
          ------------

                      1          2          3          4          5
                  -10.2288   -10.2017    -0.7674    -0.5779    -0.4645
                     A          A          A          A          A   
    1  C  1  S    0.012344   1.009652  -0.019727   0.011347  -0.002208
    2  C  1  S   -0.001524   0.022169   0.316316  -0.227042   0.000557
    3  C  1  S    0.040454  -0.073428   0.095266  -0.325324  -0.034201
    4  C  1  X    0.000002  -0.000001   0.000082   0.000296   0.002788
    5  C  1  Y   -0.000024  -0.000005   0.007989   0.031524   0.340527
    6  C  1  Z   -0.001012  -0.000339   0.111200   0.207599  -0.210200
    7  C  1  X   -0.000032  -0.000010   0.000235   0.000352  -0.000015
    8  C  1  Y   -0.001374  -0.000311   0.023721   0.027578  -0.015329
    9  C  1  Z    0.038747  -0.009032  -0.029775  -0.242958   0.040714
   10  C  1 XX    0.000218  -0.001629  -0.006288   0.001488  -0.001745
   11  C  1 YY    0.000858   0.000827  -0.007615  -0.011305   0.008618
   12  C  1 ZZ   -0.001075   0.000802   0.013903   0.009817  -0.006873
   13  C  1 XY    0.000005   0.000021  -0.000007  -0.000110   0.000096
   14  C  1 XZ    0.000004  -0.000001  -0.000001   0.000054  -0.000012
   15  C  1 YZ    0.000475   0.000059   0.000200   0.002329  -0.005953
   16  C  1  S    0.015347  -0.033963   0.016715   0.138924  -0.061197
   17  C  1  X    0.000003   0.000006  -0.000005   0.000115  -0.000420
   18  C  1  Y    0.000758   0.000815  -0.003759   0.008878  -0.058451
   19  C  1  Z    0.006238  -0.003690  -0.001924   0.011917  -0.009232
   20  C  1 XX   -0.002129   0.004877   0.006349  -0.007206  -0.006456
   21  C  1 YY   -0.004465   0.001526  -0.007917   0.106036  -0.045274
   22  C  1 ZZ    0.006595  -0.006404   0.001568  -0.098830   0.051730
   23  C  1 XY   -0.000023  -0.000031  -0.000028   0.001098  -0.000228
   24  C  1 XZ   -0.000027  -0.000006   0.000187   0.000168   0.000740
   25  C  1 YZ   -0.003139  -0.001106   0.024624   0.020132   0.104621
   26  C  2  S    1.009991  -0.013936  -0.017208  -0.006471  -0.000313
   27  C  2  S    0.022744  -0.001384   0.307220   0.268624  -0.070513
   28  C  2  S   -0.090103   0.024689   0.253577   0.494418  -0.243173
   29  C  2  X    0.000016   0.000002   0.000406   0.001409   0.002631
   30  C  2  Y    0.000900   0.000104   0.024477   0.097723   0.256022
   31  C  2  Z   -0.000227   0.000922  -0.128736   0.118996   0.164161
   32  C  2  X   -0.000055  -0.000021  -0.000632  -0.001055   0.000109
   33  C  2  Y   -0.003196  -0.001122  -0.057595  -0.093784   0.008370
   34  C  2  Z    0.030842  -0.016937  -0.091550  -0.220890   0.063691
   35  C  2 XX   -0.000857   0.000676  -0.011452  -0.001415  -0.000489
   36  C  2 YY    0.000517   0.000641  -0.003950   0.009832   0.005780
   37  C  2 ZZ    0.000340  -0.001317   0.015402  -0.008417  -0.005291
   38  C  2 XY    0.000019   0.000001   0.000049   0.000134   0.000127
   39  C  2 XZ    0.000013   0.000000  -0.000056   0.000022  -0.000049
   40  C  2 YZ    0.000888   0.000043  -0.006187  -0.001639  -0.009678
   41  C  2  S   -0.029127   0.019815  -0.019149  -0.118956   0.023032
   42  C  2  X   -0.000016  -0.000017  -0.000040  -0.000334   0.000116
   43  C  2  Y   -0.001402  -0.001337  -0.000308  -0.026819   0.018040
   44  C  2  Z    0.004262  -0.005765   0.006677   0.005054  -0.013522
   45  C  2 XX    0.005999  -0.001054  -0.006774   0.006325   0.001182
   46  C  2 YY    0.004304  -0.001757  -0.017786  -0.059905  -0.008330
   47  C  2 ZZ   -0.010302   0.002811   0.024561   0.053580   0.007148
   48  C  2 XY   -0.000021  -0.000007  -0.000279  -0.000866  -0.000232
   49  C  2 XZ   -0.000051  -0.000012   0.000035  -0.000253   0.000022
   50  C  2 YZ   -0.004260  -0.001176   0.008614  -0.021818   0.013298
   51  H  3  S   -0.000658  -0.000102   0.124119   0.258625   0.194964
   52  H  3  S    0.021340   0.007230   0.065158   0.272543   0.108864
   53  H  3  X    0.000023  -0.000001  -0.000166  -0.000246  -0.000118
   54  H  3  Y    0.001718  -0.000007  -0.012776  -0.016830  -0.005924
   55  H  3  Z    0.000733   0.000180  -0.011292  -0.009961  -0.005272
   56  H  3  S    0.001284   0.001932   0.003548   0.025822   0.010526
   57  H  3  X   -0.000106  -0.000032  -0.000057  -0.000727  -0.000099
   58  H  3  Y   -0.007700  -0.002235  -0.007812  -0.042396  -0.011936
   59  H  3  Z   -0.002008  -0.000909  -0.017514  -0.029595  -0.010790
   60  H  4  S   -0.000342  -0.000853   0.116308  -0.229665  -0.139772
   61  H  4  S    0.017750   0.021865  -0.011197  -0.219038  -0.195925
   62  H  4  X   -0.000002  -0.000010   0.000097  -0.000097   0.000028
   63  H  4  Y   -0.000208  -0.001548   0.014336  -0.016899   0.000687
   64  H  4  Z   -0.000615  -0.001023   0.012572  -0.005451  -0.009978
   65  H  4  S    0.001776   0.001996  -0.000026  -0.012903  -0.041450
   66  H  4  X    0.000031   0.000043  -0.000037  -0.000035  -0.000265
   67  H  4  Y    0.004831   0.006777  -0.009296  -0.020724  -0.049013
   68  H  4  Z    0.002450   0.003023   0.008612  -0.034385   0.011554
   69  H  5  S   -0.000191  -0.000909   0.126406  -0.202946   0.340679
   70  H  5  S    0.009344   0.018946   0.015107  -0.225221   0.434724
   71  H  5  X    0.000000   0.000013  -0.000113   0.000123  -0.000072
   72  H  5  Y   -0.000078   0.001517  -0.014532   0.016646  -0.010229
   73  H  5  Z   -0.000418  -0.000938   0.011300  -0.004891   0.005034
   74  H  5  S    0.001715   0.001141   0.002287  -0.013651   0.045180
   75  H  5  X   -0.000015  -0.000045  -0.000066   0.000070  -0.000650
   76  H  5  Y   -0.002376  -0.006003   0.000426   0.020158  -0.072517
   77  H  5  Z    0.001975   0.002943  -0.001953  -0.053724   0.040817

                      6          7          8          9         10
                   -0.4139    -0.2853    -0.2731    -0.0192    -0.0019
                     A          A          A          A          A   
    1  C  1  S    0.000030   0.000014   0.000570  -0.000012  -0.003002
    2  C  1  S   -0.036600   0.000988   0.050452  -0.000361   0.084442
    3  C  1  S   -0.169826   0.000457   0.023020  -0.000846   0.343964
    4  C  1  X   -0.001229   0.392357  -0.007816   0.403224   0.000371
    5  C  1  Y   -0.255544  -0.004939  -0.135115  -0.002767   0.029808
    6  C  1  Z   -0.319437   0.002733   0.113093  -0.000027  -0.096237
    7  C  1  X    0.000750   0.215961  -0.003583   0.338661   0.000587
    8  C  1  Y    0.060787  -0.000946   0.032296  -0.002573   0.042334
    9  C  1  Z   -0.091171  -0.000209  -0.022054  -0.000093  -0.283944
   10  C  1 XX   -0.001171   0.000010   0.000503  -0.000008   0.000940
   11  C  1 YY    0.010521  -0.000032  -0.000753  -0.000002  -0.002783
   12  C  1 ZZ   -0.009350   0.000022   0.000250   0.000010   0.001843
   13  C  1 XY    0.000103   0.000641  -0.000025   0.000059  -0.000042
   14  C  1 XZ    0.000182   0.021726  -0.000038  -0.030154   0.000018
   15  C  1 YZ    0.013743   0.000402   0.040587   0.000383   0.001439
   16  C  1  S   -0.038407   0.002817   0.159078   0.000308   1.297784
   17  C  1  X    0.000452   0.028717  -0.000419   0.566826   0.000046
   18  C  1  Y    0.051756   0.000055   0.019948  -0.003920   0.037098
   19  C  1  Z   -0.014677   0.000748   0.040536   0.000525  -0.298481
   20  C  1 XX    0.000004  -0.000021  -0.005662  -0.000003  -0.039456
   21  C  1 YY   -0.043812   0.000550   0.029598   0.000055   0.024653
   22  C  1 ZZ    0.043808  -0.000529  -0.023936  -0.000051   0.014802
   23  C  1 XY   -0.000173   0.004533   0.000302  -0.003272   0.000559
   24  C  1 XZ   -0.000409   0.003718  -0.000286  -0.042052   0.000191
   25  C  1 YZ   -0.052480  -0.000496  -0.035089  -0.000007   0.027199
   26  C  2  S   -0.000864   0.000008  -0.000745  -0.000013  -0.002549
   27  C  2  S    0.031833  -0.003014  -0.151345   0.000574   0.056030
   28  C  2  S   -0.053699  -0.005924  -0.311910   0.001527   0.366707
   29  C  2  X    0.001615   0.442714  -0.003281  -0.411662   0.000542
   30  C  2  Y    0.034482   0.003376   0.473785   0.004654   0.043845
   31  C  2  Z    0.374394  -0.005639  -0.256689   0.000598   0.082614
   32  C  2  X   -0.000486   0.256045  -0.002653  -0.348885   0.001414
   33  C  2  Y   -0.066328   0.001093   0.241740   0.004429   0.098595
   34  C  2  Z    0.044922  -0.004380  -0.223180   0.000316  -0.007804
   35  C  2 XX   -0.001603  -0.000034  -0.004787  -0.000027  -0.001698
   36  C  2 YY    0.011059  -0.000045   0.000048   0.000005  -0.004880
   37  C  2 ZZ   -0.009456   0.000079   0.004739   0.000023   0.006578
   38  C  2 XY    0.000178  -0.000528   0.000163  -0.000073  -0.000036
   39  C  2 XZ    0.000165  -0.020467   0.000530  -0.032173  -0.000033
   40  C  2 YZ    0.017765   0.000469   0.020427   0.000167  -0.003641
   41  C  2  S   -0.014431  -0.004698  -0.263082   0.000355   0.871454
   42  C  2  X   -0.000435   0.031328  -0.000421  -0.518552   0.002578
   43  C  2  Y   -0.036078   0.000004   0.023838   0.005020   0.190679
   44  C  2  Z   -0.015254   0.000150   0.007494   0.000810   0.147394
   45  C  2 XX   -0.004021   0.000158   0.007053   0.000091  -0.039531
   46  C  2 YY   -0.036975  -0.000418  -0.023188  -0.000067  -0.012707
   47  C  2 ZZ    0.040997   0.000261   0.016135  -0.000025   0.052239
   48  C  2 XY   -0.000640  -0.001337  -0.000323   0.008364   0.000447
   49  C  2 XZ   -0.000206  -0.007182   0.000000  -0.037740   0.000370
   50  C  2 YZ   -0.017298  -0.000060  -0.011949   0.000013   0.033169
   51  H  3  S    0.232598   0.003128   0.196167  -0.001219   0.005138
   52  H  3  S    0.277722   0.004078   0.250520  -0.001299  -0.357691
   53  H  3  X   -0.000097   0.015692  -0.000261  -0.020949  -0.000143
   54  H  3  Y   -0.009276  -0.000077   0.006772   0.000226  -0.010696
   55  H  3  Z    0.001081  -0.000328  -0.015963   0.000024  -0.001539
   56  H  3  S    0.036835   0.000380   0.027588  -0.001542  -0.897525
   57  H  3  X   -0.000477   0.015421  -0.000662  -0.053589   0.000460
   58  H  3  Y   -0.038748  -0.000486  -0.017997   0.000276   0.031519
   59  H  3  Z   -0.036269  -0.000618  -0.029297  -0.000054   0.032779
   60  H  4  S    0.325090   0.001912   0.146182   0.000716   0.007011
   61  H  4  S    0.391992   0.002435   0.193655   0.001222  -0.405016
   62  H  4  X    0.000082   0.014424  -0.000262   0.021827   0.000067
   63  H  4  Y    0.009592  -0.000116  -0.000900  -0.000170   0.009640
   64  H  4  Z    0.003233   0.000109   0.005145  -0.000028   0.002084
   65  H  4  S    0.036114   0.000488   0.039911   0.002287  -0.639148
   66  H  4  X    0.000375   0.015688  -0.000024   0.045482  -0.000362
   67  H  4  Y    0.055075   0.000411   0.035495  -0.000362  -0.063688
   68  H  4  Z    0.052657   0.000038   0.003336  -0.000284  -0.017226
   69  H  5  S   -0.073863  -0.003342  -0.210766  -0.000331   0.003811
   70  H  5  S   -0.185199  -0.005330  -0.338856  -0.000819  -0.418704
   71  H  5  X   -0.000005   0.014361  -0.000256   0.022655  -0.000098
   72  H  5  Y   -0.003099  -0.000098  -0.000069  -0.000172  -0.012244
   73  H  5  Z   -0.010912   0.000022   0.000282   0.000026   0.003413
   74  H  5  S   -0.043478  -0.000481  -0.041734  -0.000546  -1.137951
   75  H  5  X    0.000257   0.012814   0.000061   0.052842   0.000245
   76  H  5  Y    0.051240   0.000557   0.043308  -0.000378   0.036128
   77  H  5  Z   -0.005971  -0.000451  -0.023199   0.000143  -0.024398

                     11         12         13         14         15
                    0.0149     0.0250     0.0627     0.0711     0.0791
                     A          A          A          A          A   
    1  C  1  S   -0.001242   0.002406   0.000142   0.007694   0.002874
    2  C  1  S    0.067518  -0.017265  -0.000199  -0.012294   0.043793
    3  C  1  S    0.182924  -0.128965  -0.007758  -0.391636   0.154186
    4  C  1  X   -0.000235  -0.000675  -0.172711   0.002683  -0.000149
    5  C  1  Y   -0.067871  -0.118337   0.001633   0.037188   0.011944
    6  C  1  Z   -0.036532   0.005188   0.000097   0.014081   0.054440
    7  C  1  X   -0.000973  -0.002329  -0.200302   0.003340   0.000262
    8  C  1  Y   -0.172380  -0.370822   0.001868   0.102256   0.011222
    9  C  1  Z   -0.275121   0.106452  -0.001897   0.035128  -0.046252
   10  C  1 XX    0.002807  -0.003180  -0.000056  -0.007391  -0.006829
   11  C  1 YY    0.004869  -0.001757   0.000006   0.001116  -0.010935
   12  C  1 ZZ   -0.007676   0.004938   0.000049   0.006275   0.017764
   13  C  1 XY    0.000038   0.000013   0.000840   0.000062  -0.000023
   14  C  1 XZ   -0.000088  -0.000028  -0.006121  -0.000039   0.000043
   15  C  1 YZ   -0.004823  -0.003846  -0.000088  -0.010583   0.003119
   16  C  1  S    0.423732  -1.762473  -0.168163 -10.895014   1.486586
   17  C  1  X    0.000942  -0.014430   0.628563  -0.006233  -0.002868
   18  C  1  Y   -0.206083  -1.942237   0.008249   0.439774  -0.489338
   19  C  1  Z   -0.537089  -0.377276  -0.070850  -4.840625  -1.577228
   20  C  1 XX   -0.010842   0.016695   0.000853   0.081355   0.022759
   21  C  1 YY    0.022320  -0.051848  -0.001224  -0.155032   0.016808
   22  C  1 ZZ   -0.011478   0.035152   0.000371   0.073677  -0.039567
   23  C  1 XY    0.000390  -0.000769  -0.023867  -0.001730  -0.000295
   24  C  1 XZ   -0.000537   0.000861  -0.041248   0.000623   0.000782
   25  C  1 YZ   -0.043020   0.100150  -0.000270   0.003951   0.113386
   26  C  2  S   -0.001283  -0.000776  -0.000150  -0.005563   0.005534
   27  C  2  S   -0.073008   0.048102   0.000522   0.040814   0.030914
   28  C  2  S   -0.228256   0.245771   0.009863   0.430824   0.052371
   29  C  2  X   -0.001448  -0.000349  -0.127990   0.000216   0.000426
   30  C  2  Y   -0.085144  -0.045940  -0.000590  -0.142487   0.061035
   31  C  2  Z   -0.027981   0.023544   0.000252   0.004969  -0.075530
   32  C  2  X   -0.002692   0.001243  -0.145821   0.004306  -0.001983
   33  C  2  Y   -0.159367   0.094668   0.004771   0.117730  -0.142109
   34  C  2  Z   -0.250735   0.151261  -0.001324   0.045982  -0.063577
   35  C  2 XX   -0.003395   0.001469  -0.000089   0.001424  -0.010001
   36  C  2 YY   -0.001737   0.002170   0.000106  -0.000541  -0.013507
   37  C  2 ZZ    0.005132  -0.003639  -0.000016  -0.000882   0.023507
   38  C  2 XY    0.000056   0.000008  -0.003940   0.000012  -0.000049
   39  C  2 XZ    0.000050   0.000036   0.013445  -0.000167  -0.000060
   40  C  2 YZ    0.008256   0.007563  -0.000076   0.001907  -0.006748
   41  C  2  S   -0.483083   2.303160   0.172828  11.196578  -0.283988
   42  C  2  X   -0.008954   0.009464   0.595180  -0.007937   0.001107
   43  C  2  Y   -0.553420   1.028200  -0.008975   0.311657  -0.061199
   44  C  2  Z   -0.626921  -0.234414  -0.068059  -4.207934   1.874299
   45  C  2 XX    0.007688  -0.041184  -0.000487  -0.076601   0.063324
   46  C  2 YY   -0.063361   0.033527   0.000256   0.085469  -0.027058
   47  C  2 ZZ    0.055673   0.007657   0.000231  -0.008868  -0.036266
   48  C  2 XY   -0.001118   0.000996   0.039538   0.001743  -0.000938
   49  C  2 XZ   -0.000927   0.001061   0.015212   0.000484   0.000978
   50  C  2 YZ   -0.072354   0.085635   0.000204   0.060500   0.082840
   51  H  3  S    0.016526   0.015131  -0.000088  -0.022827  -0.017966
   52  H  3  S    0.670172  -0.552097  -0.012674  -0.856487   0.214685
   53  H  3  X    0.000123  -0.000022   0.005779   0.000045  -0.000106
   54  H  3  Y    0.010308   0.000131   0.000087   0.009798  -0.008488
   55  H  3  Z    0.008196  -0.000484   0.000036   0.005315   0.007014
   56  H  3  S    2.553514  -1.441834   0.050329   3.503505  -0.149156
   57  H  3  X   -0.001177   0.001966  -0.039231   0.002741  -0.001251
   58  H  3  Y   -0.082905   0.134222   0.002766   0.138160  -0.085091
   59  H  3  Z   -0.021140   0.003930   0.002861   0.141398  -0.096626
   60  H  4  S   -0.009668   0.012729  -0.000280  -0.023084  -0.023500
   61  H  4  S   -0.448674  -0.450707   0.007814   0.594986  -0.343941
   62  H  4  X    0.000072   0.000018   0.003544  -0.000059   0.000023
   63  H  4  Y    0.007600   0.002757  -0.000002  -0.000146   0.003628
   64  H  4  Z    0.007194   0.002821  -0.000116  -0.010555  -0.011337
   65  H  4  S   -2.047082  -3.105969   0.004067   0.444897  -1.132213
   66  H  4  X   -0.000354  -0.000363  -0.070395   0.001122  -0.000280
   67  H  4  Y   -0.060304  -0.052168   0.000672   0.032399  -0.011486
   68  H  4  Z   -0.008342  -0.053084   0.001456   0.146393   0.028794
   69  H  5  S    0.002863  -0.002497   0.000291   0.025727  -0.038500
   70  H  5  S   -0.158468   0.861638   0.004580   0.409106   0.094707
   71  H  5  X    0.000017   0.000041   0.004214  -0.000061  -0.000039
   72  H  5  Y   -0.002458   0.004247  -0.000033  -0.001316  -0.006289
   73  H  5  Z    0.003228  -0.007299  -0.000039  -0.002356  -0.014272
   74  H  5  S   -0.483240   3.805217  -0.062076  -4.366720   0.580266
   75  H  5  X    0.000425  -0.000641  -0.031272   0.000672  -0.000806
   76  H  5  Y    0.063601  -0.092434   0.000123  -0.002802  -0.090554
   77  H  5  Z    0.051599   0.068285   0.001524   0.101482   0.038176

                     16         17         18         19         20
                    0.1117     0.1127     0.1167     0.1280     0.1459
                     A          A          A          A          A   
    1  C  1  S    0.005921   0.000261  -0.038796  -0.014783  -0.015036
    2  C  1  S   -0.059355  -0.001672  -0.204901  -0.018893  -0.120317
    3  C  1  S   -1.026203  -0.035873   0.311684   0.525979   0.536796
    4  C  1  X    0.008752  -0.236800  -0.000826   0.001232   0.000413
    5  C  1  Y    0.114808   0.005467  -0.083948   0.237545   0.038495
    6  C  1  Z    0.002792   0.000061   0.121673   0.001117   0.130641
    7  C  1  X    0.003277  -0.187360   0.002914  -0.006663  -0.000481
    8  C  1  Y   -0.427738  -0.012901   0.293591  -0.928330  -0.170263
    9  C  1  Z   -1.247218  -0.043098  -1.560587  -0.374886   1.557178
   10  C  1 XX    0.000874  -0.000012   0.019983   0.016559  -0.039528
   11  C  1 YY   -0.000221   0.000028   0.003801  -0.008116   0.048761
   12  C  1 ZZ   -0.000653  -0.000016  -0.023784  -0.008443  -0.009234
   13  C  1 XY    0.000090  -0.001285  -0.000133  -0.000284   0.000833
   14  C  1 XZ    0.000035   0.006962  -0.000056   0.000067  -0.000145
   15  C  1 YZ    0.024390   0.000702  -0.007229   0.009071  -0.016648
   16  C  1  S   -5.770385  -0.181642   5.086893   5.293236   0.154371
   17  C  1  X   -0.072165   2.237594   0.016878  -0.044698  -0.019183
   18  C  1  Y   -0.321682  -0.029399   1.836082  -6.064108  -2.450499
   19  C  1  Z   -3.634769  -0.117090  -1.938280   1.709139   0.562008
   20  C  1 XX    0.047478   0.002385  -0.161114  -0.037059  -0.096721
   21  C  1 YY    0.184140   0.005684   0.343484   0.197723  -0.662683
   22  C  1 ZZ   -0.231618  -0.008069  -0.182371  -0.160664   0.759404
   23  C  1 XY    0.000105   0.034290   0.004401   0.001697  -0.005160
   24  C  1 XZ   -0.002748   0.057461  -0.000069   0.002747   0.002109
   25  C  1 YZ   -0.060815  -0.002670  -0.013290   0.334190   0.320848
   26  C  2  S    0.008705   0.000344  -0.036032  -0.026243   0.024641
   27  C  2  S    0.112998   0.003771  -0.112518  -0.099237   0.012970
   28  C  2  S    0.491893   0.015288   1.289842   0.776602  -2.199862
   29  C  2  X   -0.005616   0.241781   0.000082   0.000182  -0.001525
   30  C  2  Y    0.181387   0.003385  -0.007048   0.001183  -0.093365
   31  C  2  Z    0.060182   0.001847  -0.084984  -0.008956  -0.067789
   32  C  2  X   -0.013505   0.228833   0.002318   0.005364  -0.005279
   33  C  2  Y   -0.367565  -0.017380   0.133513   0.403331  -0.513689
   34  C  2  Z   -1.382802  -0.049003  -0.900269   0.132983   1.095671
   35  C  2 XX   -0.004824  -0.000066   0.005413   0.013543  -0.011922
   36  C  2 YY    0.006044   0.000064   0.002468  -0.007846   0.017829
   37  C  2 ZZ   -0.001220   0.000002  -0.007881  -0.005696  -0.005907
   38  C  2 XY    0.000011   0.005953   0.000026  -0.000239   0.000268
   39  C  2 XZ   -0.000250   0.004167   0.000024  -0.000110  -0.000051
   40  C  2 YZ   -0.016221  -0.000473   0.004081  -0.017112   0.001555
   41  C  2  S    4.130197   0.114685   2.616347  -0.915036  -1.942342
   42  C  2  X    0.036406  -2.236967  -0.009334   0.035670   0.006954
   43  C  2  Y   -2.804328  -0.075335  -0.764926   3.525828   0.699888
   44  C  2  Z   -4.226995  -0.137618  -0.142569   2.264287   1.081684
   45  C  2 XX    0.008687  -0.000786  -0.128173  -0.071093  -0.023852
   46  C  2 YY   -0.310026  -0.009655  -0.130539   0.041629   0.196656
   47  C  2 ZZ    0.301339   0.010441   0.258712   0.029464  -0.172804
   48  C  2 XY   -0.002940  -0.062255   0.000227   0.001519   0.002119
   49  C  2 XZ   -0.006113   0.085569   0.001125   0.001990   0.002093
   50  C  2 YZ   -0.249059  -0.009648   0.094652   0.145680   0.187697
   51  H  3  S   -0.021640   0.000051   0.010646  -0.087594   0.103309
   52  H  3  S    2.269486   0.085175  -0.531775  -1.794656   0.609074
   53  H  3  X   -0.000266   0.000639   0.000146   0.000161  -0.000102
   54  H  3  Y   -0.019874  -0.000727   0.011432   0.011092  -0.008275
   55  H  3  Z   -0.012071  -0.000464  -0.001848   0.015188  -0.005269
   56  H  3  S    6.199211   0.210639   0.168311  -3.873518  -0.770140
   57  H  3  X   -0.011497   0.119600   0.003431   0.004899   0.001220
   58  H  3  Y   -0.618338  -0.023494   0.245550   0.283738   0.216077
   59  H  3  Z   -0.388464  -0.013764   0.066161   0.162049  -0.140516
   60  H  4  S    0.028598   0.000586  -0.002680  -0.057536   0.098335
   61  H  4  S   -1.077189  -0.036267  -1.688255  -3.127981   0.721315
   62  H  4  X   -0.000094   0.000284  -0.000061  -0.000165  -0.000170
   63  H  4  Y   -0.010968  -0.000383  -0.009572  -0.022737  -0.024036
   64  H  4  Z   -0.009122  -0.000320  -0.001022  -0.011068   0.005817
   65  H  4  S   -3.919718  -0.126830  -0.790455  -5.109442  -1.967532
   66  H  4  X    0.000115  -0.089921  -0.002964  -0.002924  -0.004370
   67  H  4  Y   -0.331131  -0.010087  -0.442390  -0.567478  -0.472252
   68  H  4  Z   -0.307271  -0.009780  -0.210121  -0.570610   0.401694
   69  H  5  S   -0.020102  -0.000378  -0.017594  -0.022108   0.225984
   70  H  5  S   -0.027238  -0.000729  -2.726164   1.108976   2.831674
   71  H  5  X   -0.000019  -0.001586   0.000192  -0.000134   0.000098
   72  H  5  Y   -0.008184  -0.000288   0.026086  -0.016464   0.011390
   73  H  5  Z    0.000797   0.000026  -0.013576   0.014679  -0.000238
   74  H  5  S   -1.217468  -0.041163  -4.230451   6.579256   2.813967
   75  H  5  X    0.003903  -0.122161   0.005375  -0.003932   0.001380
   76  H  5  Y   -0.009270   0.000906   0.668735  -0.422847   0.137940
   77  H  5  Z    0.106856   0.003300  -0.419260   0.164556   0.435773

                     21         22         23         24         25
                    0.1685     0.1954     0.2193     0.2531     0.2858
                     A          A          A          A          A   
    1  C  1  S    0.049177   0.018747  -0.000056  -0.005270  -0.009420
    2  C  1  S    0.158482   0.012001  -0.000116  -0.030330  -0.135305
    3  C  1  S   -2.138792  -0.557530  -0.002211   0.753036   0.386039
    4  C  1  X    0.000227   0.000403   0.002004  -0.001532  -0.000341
    5  C  1  Y   -0.066283   0.124391   0.002718  -0.200570   0.009684
    6  C  1  Z   -0.062548  -0.019904  -0.000182   0.074801  -0.010904
    7  C  1  X    0.000173   0.006122  -0.072329  -0.002124  -0.000594
    8  C  1  Y   -0.092532   0.605944   0.005035  -0.220240   0.079912
    9  C  1  Z   -1.019582   1.224574  -0.011278   0.765838   2.385893
   10  C  1 XX    0.014480  -0.024920   0.000578  -0.015313  -0.023325
   11  C  1 YY   -0.005908   0.025700  -0.000503   0.017604  -0.073822
   12  C  1 ZZ   -0.008572  -0.000781  -0.000075  -0.002290   0.097147
   13  C  1 XY    0.000081   0.000201   0.047415   0.000756  -0.000526
   14  C  1 XZ   -0.000384   0.000368  -0.002532  -0.000178  -0.000260
   15  C  1 YZ   -0.037779   0.037380   0.000856  -0.031648  -0.013289
   16  C  1  S  -18.341327 -20.819715   0.100217 -10.471436   2.271648
   17  C  1  X    0.002055   0.019781   0.018120  -0.013590  -0.010172
   18  C  1  Y   -0.148441   2.489243   0.018822  -1.737509  -0.951191
   19  C  1  Z   -6.226157  -5.880415   0.031296  -2.315568   4.007938
   20  C  1 XX    0.179419   0.120346  -0.001192   0.083726  -0.274095
   21  C  1 YY    0.142922  -0.558978   0.002984  -0.215241   0.139252
   22  C  1 ZZ   -0.322341   0.438632  -0.001792   0.131515   0.134843
   23  C  1 XY   -0.000461  -0.005597  -0.176896  -0.005708   0.005768
   24  C  1 XZ    0.003648   0.000153  -0.018433   0.005984   0.003004
   25  C  1 YZ    0.448136  -0.199452  -0.011387   0.862644   0.208478
   26  C  2  S   -0.045760  -0.017623   0.000046  -0.004252   0.033836
   27  C  2  S   -0.198037  -0.048760   0.000293  -0.000764   0.161355
   28  C  2  S    1.630856  -0.515235  -0.000747  -0.379182  -0.625208
   29  C  2  X   -0.001330   0.001949  -0.040530   0.002862  -0.001142
   30  C  2  Y   -0.038079   0.062119  -0.001763   0.288939  -0.039404
   31  C  2  Z   -0.109253  -0.007519   0.000636   0.021829  -0.249368
   32  C  2  X   -0.001737   0.011096  -0.229792   0.005858   0.002483
   33  C  2  Y   -0.150377   0.794232  -0.001812   0.385012   0.422041
   34  C  2  Z   -1.213309   1.125679  -0.009129   0.801605   1.543445
   35  C  2 XX   -0.016376   0.012199   0.000467   0.014597   0.028867
   36  C  2 YY    0.011558   0.003530  -0.000433  -0.021566   0.021113
   37  C  2 ZZ    0.004818  -0.015729  -0.000034   0.006969  -0.049980
   38  C  2 XY    0.000557  -0.000320   0.022161  -0.000307   0.000127
   39  C  2 XZ    0.000136  -0.000615   0.009182   0.000110   0.000036
   40  C  2 YZ    0.017988  -0.052661  -0.000665   0.010138  -0.007098
   41  C  2  S   18.579412  20.959399  -0.103102  11.119132  -3.977390
   42  C  2  X   -0.023975  -0.009704  -0.170028   0.014884   0.014577
   43  C  2  Y   -1.684100  -1.013206  -0.000419   1.595368   1.281166
   44  C  2  Z   -6.151980  -5.240438   0.037473  -2.448372   1.557954
   45  C  2 XX   -0.185039  -0.163652   0.002037  -0.004345   0.184116
   46  C  2 YY   -0.167470   0.201310  -0.006235   0.203702   0.177336
   47  C  2 ZZ    0.352509  -0.037658   0.004198  -0.199357  -0.361452
   48  C  2 XY    0.001698   0.002890   0.256660   0.005831  -0.001071
   49  C  2 XZ    0.002765   0.005905  -0.114073   0.004206   0.003202
   50  C  2 YZ    0.337617   0.276751  -0.005016   0.617121   0.322980
   51  H  3  S    0.177263  -0.179833  -0.001107  -0.091477  -0.023288
   52  H  3  S   -0.273131  -3.011818   0.028535  -2.934682  -2.117332
   53  H  3  X    0.000114   0.000060  -0.004137  -0.000114   0.000072
   54  H  3  Y    0.013065  -0.002259  -0.000071  -0.003245   0.002485
   55  H  3  Z    0.005057  -0.007309  -0.000023  -0.004651  -0.011798
   56  H  3  S    3.162368   1.715597  -0.023645   0.186566  -2.657694
   57  H  3  X    0.009620   0.006467   0.526050   0.003211   0.016899
   58  H  3  Y    0.597231   0.628113  -0.010045  -0.235386   0.702325
   59  H  3  Z    0.160059  -0.197908  -0.009466   0.216293   0.253489
   60  H  4  S   -0.160541   0.217094   0.001890   0.013618   0.018192
   61  H  4  S   -0.607077   3.615790   0.015781  -0.753474   1.170931
   62  H  4  X    0.000173  -0.000033  -0.000642  -0.000056   0.000130
   63  H  4  Y    0.020006   0.001720  -0.000168   0.000012   0.015542
   64  H  4  Z    0.022132  -0.001565  -0.000348   0.024617  -0.008808
   65  H  4  S   -2.020195   0.917125   0.017602  -0.462079   0.917386
   66  H  4  X   -0.001266   0.002778  -0.731038  -0.012360   0.009171
   67  H  4  Y    0.138967   0.194097   0.005213  -0.335646   0.592153
   68  H  4  Z    0.221598   0.136046  -0.007808   0.427218  -0.854448
   69  H  5  S    0.028706  -0.054641  -0.001851   0.155908   0.046694
   70  H  5  S    1.533719   1.076141  -0.035578   2.760473   1.890348
   71  H  5  X   -0.000082  -0.000029   0.003157   0.000163  -0.000119
   72  H  5  Y   -0.015855   0.002033  -0.000096   0.016472  -0.012691
   73  H  5  Z   -0.007868   0.016223   0.000387  -0.017888  -0.017301
   74  H  5  S   -1.451871  -3.082227   0.006023  -0.013381   2.677580
   75  H  5  X    0.000147  -0.004296   0.834357   0.008457  -0.006562
   76  H  5  Y   -0.473382  -0.047983  -0.000283  -0.033482  -0.827974
   77  H  5  Z   -0.036755   0.604031   0.006255  -0.519031  -0.877465

                     26         27         28         29         30
                    0.3084     0.3151     0.3554     0.3772     0.4045
                     A          A          A          A          A   
    1  C  1  S    0.000857  -0.030706   0.000035  -0.019893   0.040328
    2  C  1  S    0.003796  -0.130385   0.000135  -0.059354  -0.017026
    3  C  1  S   -0.036725   1.463209   0.000018   1.787622  -2.129648
    4  C  1  X   -0.059526  -0.003399  -0.246804   0.002367   0.000778
    5  C  1  Y    0.004520  -0.139488   0.001551   0.279404   0.054907
    6  C  1  Z    0.007336  -0.251863   0.000034  -0.075179  -0.000145
    7  C  1  X   -0.345290  -0.005873  -0.968716   0.021933   0.005459
    8  C  1  Y   -0.008139   0.230289   0.004979   3.098902   0.308425
    9  C  1  Z   -0.076169   2.361163   0.007855   1.766810  -1.824799
   10  C  1 XX    0.000325  -0.027234   0.000205  -0.013566   0.018459
   11  C  1 YY    0.000934   0.000360  -0.000229   0.006540   0.008591
   12  C  1 ZZ   -0.001259   0.026874   0.000025   0.007026  -0.027050
   13  C  1 XY   -0.034744  -0.000646   0.011134   0.000288  -0.000001
   14  C  1 XZ   -0.018496  -0.000713  -0.029558  -0.000385  -0.000010
   15  C  1 YZ    0.000804  -0.023327   0.000344  -0.050363  -0.010232
   16  C  1  S   -0.218257   5.249591  -0.008232   0.116164  -6.297894
   17  C  1  X   -0.104883  -0.034241  -1.114395   0.034072   0.016746
   18  C  1  Y    0.112859  -3.636818   0.005854   4.838604   1.602909
   19  C  1  Z   -0.076544   1.540691  -0.002113  -0.045436  -1.795715
   20  C  1 XX    0.012614  -0.086001  -0.004331  -0.080074   0.530293
   21  C  1 YY    0.008084  -0.561244   0.002320  -0.337370   0.613980
   22  C  1 ZZ   -0.020698   0.647245   0.002011   0.417444  -1.144273
   23  C  1 XY    0.518652   0.010311  -0.227601  -0.002767  -0.003738
   24  C  1 XZ    0.008006   0.011300   0.077253   0.000769   0.001629
   25  C  1 YZ   -0.029017   1.056869  -0.003119   0.309148   0.266197
   26  C  2  S   -0.001038   0.028240   0.000048   0.010491   0.032322
   27  C  2  S   -0.004126   0.111441   0.000054   0.028454  -0.012801
   28  C  2  S    0.054601  -1.589359  -0.004316  -0.584174  -0.252097
   29  C  2  X   -0.112495  -0.003460   0.044722   0.000407  -0.001881
   30  C  2  Y    0.000237   0.033812   0.000168   0.034616  -0.203002
   31  C  2  Z    0.000821   0.016916   0.000014  -0.018110   0.034690
   32  C  2  X   -0.641335  -0.022772   0.448979   0.008415  -0.027074
   33  C  2  Y    0.021374  -0.491862   0.002211   0.184227  -2.261342
   34  C  2  Z   -0.091044   3.041937   0.006972   2.041627  -2.957344
   35  C  2 XX   -0.000203   0.028844  -0.000208   0.007280   0.005558
   36  C  2 YY   -0.002317   0.051996   0.000229   0.011190  -0.021209
   37  C  2 ZZ    0.002519  -0.080841  -0.000021  -0.018470   0.015652
   38  C  2 XY    0.035449   0.001281  -0.010311   0.000039  -0.000500
   39  C  2 XZ    0.024706   0.000364   0.015139   0.000063  -0.000120
   40  C  2 YZ    0.000390  -0.021394  -0.000038   0.006091  -0.007152
   41  C  2  S    0.177440  -4.230661   0.012440   0.594974   0.744604
   42  C  2  X   -0.462862   0.017265   0.538539  -0.000664  -0.033299
   43  C  2  Y   -0.081155   2.665625  -0.001072  -0.624480  -2.760370
   44  C  2  Z   -0.131220   3.948052  -0.002771   0.610232  -1.910197
   45  C  2 XX   -0.016502   0.360458  -0.002768   0.142629   0.900576
   46  C  2 YY   -0.003700   0.385717   0.004487   0.777669  -0.960788
   47  C  2 ZZ    0.020202  -0.746176  -0.001719  -0.920298   0.060211
   48  C  2 XY   -0.365736  -0.009797  -0.179997   0.007936  -0.025440
   49  C  2 XZ   -0.160536   0.008852   0.327323   0.005658   0.000660
   50  C  2 YZ   -0.030821   1.160897  -0.004794   0.727510   0.123426
   51  H  3  S    0.001396  -0.020931  -0.000050   0.054770  -0.034122
   52  H  3  S    0.090066  -3.009427  -0.012141  -3.302768   6.780428
   53  H  3  X    0.004934   0.000081   0.000146   0.000002   0.000020
   54  H  3  Y    0.000001  -0.000693   0.000011   0.000343   0.002103
   55  H  3  Z    0.001072  -0.034818   0.000009  -0.009615   0.008972
   56  H  3  S    0.105498  -2.937404   0.000323  -0.572091   3.013011
   57  H  3  X    1.521416   0.057667  -0.390724   0.008110  -0.023748
   58  H  3  Y   -0.049535   1.055976   0.006006   0.485994  -1.433763
   59  H  3  Z    0.030709  -1.067969   0.002606   0.744662  -0.880601
   60  H  4  S    0.002469  -0.051802  -0.000132   0.026184   0.038890
   61  H  4  S    0.008344  -0.537597   0.007853   4.327509   0.165471
   62  H  4  X    0.005011   0.000073  -0.011951   0.000035   0.000112
   63  H  4  Y   -0.000130  -0.000747   0.000082   0.005010   0.003948
   64  H  4  Z   -0.000068   0.004029  -0.000038   0.002828   0.000707
   65  H  4  S    0.037257  -1.317069  -0.000848   4.142902   0.217575
   66  H  4  X    1.293696   0.039184   0.716749  -0.005468  -0.010452
   67  H  4  Y   -0.022764   0.158646  -0.000061  -0.095204  -0.295832
   68  H  4  Z   -0.019157   0.772022   0.000826   1.554301  -0.435034
   69  H  5  S   -0.000638   0.044995  -0.000206   0.009307   0.022528
   70  H  5  S   -0.088636   3.357182   0.002665  -2.662823   0.495261
   71  H  5  X   -0.006463  -0.000123  -0.010062   0.000133  -0.000014
   72  H  5  Y   -0.000044   0.008223   0.000018   0.014431   0.000656
   73  H  5  Z    0.000974  -0.032979   0.000028  -0.018233   0.001658
   74  H  5  S   -0.123644   3.704331  -0.000693  -3.848670  -0.971588
   75  H  5  X   -0.459790  -0.016418   1.621577   0.000094   0.002328
   76  H  5  Y    0.021238  -0.561553  -0.012257  -0.401849  -0.213945
   77  H  5  Z   -0.006984   0.399475   0.002388  -0.907904  -0.201254

                     31         32         33         34         35
                    0.4383     0.4440     0.4485     0.4763     0.4834
                     A          A          A          A          A   
    1  C  1  S    0.065085   0.012220  -0.000127   0.022199   0.001051
    2  C  1  S    0.029964  -0.048259   0.000345  -0.024853  -0.004620
    3  C  1  S   -4.173627   0.903894  -0.033157  -2.194046  -0.092378
    4  C  1  X   -0.000636   0.006558   0.250032  -0.003387   0.050185
    5  C  1  Y    0.026634  -0.065423  -0.001221  -0.134444   0.008175
    6  C  1  Z    0.081875   0.002249  -0.002367  -0.010245  -0.008308
    7  C  1  X   -0.011329   0.051896   1.825364  -0.043027   0.345605
    8  C  1  Y   -0.602880   1.249207  -0.096050  -3.616428  -0.131393
    9  C  1  Z    5.987488   3.713807  -0.085888  -0.802550  -0.171935
   10  C  1 XX    0.017656  -0.008710   0.000061  -0.012771  -0.000084
   11  C  1 YY   -0.026553  -0.004990   0.000216   0.012887   0.000553
   12  C  1 ZZ    0.008896   0.013700  -0.000276  -0.000116  -0.000469
   13  C  1 XY   -0.000428   0.000187   0.002052   0.000281   0.005081
   14  C  1 XZ    0.000166   0.000010  -0.014092   0.000299   0.031442
   15  C  1 YZ    0.020338   0.010910   0.000447  -0.012255   0.002387
   16  C  1  S   -6.895766  -3.941455   0.183133   3.626523   0.130636
   17  C  1  X   -0.006896   0.035616   1.145251  -0.016076  -0.155750
   18  C  1  Y   -0.568706   1.665283  -0.074452  -0.792497  -0.060998
   19  C  1  Z    1.104907   0.228029   0.014718   0.797173   0.004879
   20  C  1 XX    0.584543   0.266212  -0.014951  -0.458458   0.001086
   21  C  1 YY   -1.957067  -0.731045   0.017682   0.497582   0.048856
   22  C  1 ZZ    1.372524   0.464832  -0.002731  -0.039124  -0.049942
   23  C  1 XY   -0.019181  -0.013083  -0.259075   0.012074   0.327919
   24  C  1 XZ    0.006325  -0.037759  -0.117000  -0.012822  -1.454288
   25  C  1 YZ    0.581066  -2.664889   0.062734  -0.130768   0.088160
   26  C  2  S    0.062787   0.027598  -0.000054   0.053654  -0.001909
   27  C  2  S   -0.000347  -0.026120   0.001631   0.013637   0.003212
   28  C  2  S   -6.503708  -2.408218   0.017286  -4.270830   0.280807
   29  C  2  X    0.000978  -0.002883  -0.256699   0.002181   0.251803
   30  C  2  Y    0.127901   0.064325   0.001106  -0.136650  -0.000876
   31  C  2  Z    0.027766  -0.080439  -0.000695  -0.175586  -0.004779
   32  C  2  X   -0.007898   0.031668  -0.698216  -0.008085   1.550696
   33  C  2  Y   -0.682101   3.231086  -0.067822  -1.453378  -0.019552
   34  C  2  Z    3.120781   2.769262  -0.078157  -2.368134  -0.156742
   35  C  2 XX    0.033315  -0.001474   0.000242  -0.010993  -0.000007
   36  C  2 YY   -0.012559   0.027371  -0.000744   0.016684  -0.000714
   37  C  2 ZZ   -0.020756  -0.025897   0.000502  -0.005691   0.000721
   38  C  2 XY   -0.000565   0.000533   0.004547   0.000331  -0.003761
   39  C  2 XZ   -0.000208   0.000158  -0.015333   0.000444  -0.001999
   40  C  2 YZ   -0.020381   0.055231  -0.001278   0.013429  -0.001944
   41  C  2  S   -0.702237   1.397329  -0.131965  -4.698806  -0.080255
   42  C  2  X    0.004318  -0.017220  -1.185613   0.008673   0.531719
   43  C  2  Y    0.502027   0.026203   0.018371  -0.229772   0.011067
   44  C  2  Z   -0.235949  -0.141907   0.020228   0.156955   0.011897
   45  C  2 XX    0.042773   0.215398  -0.017113  -0.144481   0.028334
   46  C  2 YY    0.523952   1.360740  -0.008809   0.099775  -0.007358
   47  C  2 ZZ   -0.566725  -1.576138   0.025922   0.044706  -0.020976
   48  C  2 XY    0.003983   0.013436  -0.660415   0.010001   0.987045
   49  C  2 XZ   -0.006806   0.020718   1.063387  -0.017669   0.324268
   50  C  2 YZ   -0.382034  -0.823354  -0.006253  -0.363532  -0.042406
   51  H  3  S   -0.092107   0.188769  -0.005047   0.129548  -0.010365
   52  H  3  S    1.155923  -3.214206   0.121323   6.428524  -0.008382
   53  H  3  X   -0.000163  -0.000006  -0.017271   0.000562   0.022438
   54  H  3  Y   -0.018825   0.013430  -0.000009   0.029525  -0.000616
   55  H  3  Z   -0.020538   0.025829  -0.000749   0.003466  -0.001573
   56  H  3  S   -0.037698  -0.205791   0.005296   0.879306  -0.009225
   57  H  3  X   -0.002906   0.001332   0.748424  -0.048338  -1.420879
   58  H  3  Y   -0.410772  -0.182654  -0.030836  -3.227102   0.019525
   59  H  3  Z   -0.079082   1.446215  -0.023983  -0.979335   0.098897
   60  H  4  S   -0.043708  -0.083634   0.003308   0.016609   0.014779
   61  H  4  S    6.288821   9.356174  -0.283321  -5.765512  -0.330525
   62  H  4  X    0.000025   0.000173   0.016961  -0.000182  -0.004641
   63  H  4  Y    0.007145  -0.018356   0.000290   0.004003  -0.000446
   64  H  4  Z   -0.006113  -0.011468  -0.000121  -0.000661  -0.002295
   65  H  4  S    1.443243   1.898591  -0.059528  -0.883230  -0.034095
   66  H  4  X    0.011688  -0.013471  -1.299756  -0.001054  -0.169452
   67  H  4  Y    1.150380   3.006825  -0.072834  -1.587643  -0.055813
   68  H  4  Z    1.849366   0.100460  -0.006153  -1.224607  -0.011534
   69  H  5  S   -0.176911   0.094491  -0.002831   0.111351  -0.004232
   70  H  5  S    9.060531  -2.744302   0.127315   4.659241   0.129485
   71  H  5  X   -0.000103   0.000384   0.008114   0.000175   0.013912
   72  H  5  Y   -0.007022  -0.005418   0.000066   0.022773  -0.000550
   73  H  5  Z    0.007085  -0.004317   0.000310   0.003194   0.000772
   74  H  5  S    1.526352  -0.549619   0.032949   0.822419   0.025493
   75  H  5  X   -0.016567  -0.009525  -0.438095  -0.024526  -1.180334
   76  H  5  Y   -2.092087   1.533028  -0.052979  -2.550801  -0.032056
   77  H  5  Z    1.147731   0.954704  -0.001250   1.415582  -0.000695

                     36         37         38         39         40
                    0.4870     0.4934     0.5048     0.5571     0.5629
                     A          A          A          A          A   
    1  C  1  S    0.014238   0.104191  -0.026081   0.078067   0.001958
    2  C  1  S   -0.108142  -0.000179  -0.027558   0.022401   0.000005
    3  C  1  S   -1.819975  -8.253842   4.421674  -8.370493  -0.184335
    4  C  1  X   -0.002903   0.000147  -0.000832  -0.000350   0.070630
    5  C  1  Y    0.174792  -0.001196  -0.109114  -0.060401  -0.001512
    6  C  1  Z   -0.233933   0.332731  -0.087744  -0.145334  -0.004117
    7  C  1  X   -0.043416  -0.008209  -0.067841  -0.024539   1.377321
    8  C  1  Y   -0.548971  -0.951642  -7.110377  -0.197405  -0.037945
    9  C  1  Z   -2.896933  -2.608996   1.402123  -1.571859  -0.111347
   10  C  1 XX   -0.010664   0.009295  -0.006092   0.027116   0.000506
   11  C  1 YY    0.014041   0.031258  -0.009190  -0.008227  -0.000100
   12  C  1 ZZ   -0.003378  -0.040553   0.015283  -0.018889  -0.000407
   13  C  1 XY   -0.000125   0.000100  -0.000091  -0.000364   0.002827
   14  C  1 XZ   -0.000702  -0.000348  -0.000076   0.001036  -0.056037
   15  C  1 YZ    0.056172  -0.004492   0.013472  -0.027748   0.000102
   16  C  1  S    4.537752  -5.278195  -4.757578 -14.795086  -0.389359
   17  C  1  X   -0.001158  -0.001909  -0.015406   0.005023   0.224782
   18  C  1  Y   -0.220979  -0.589499  -1.899065   0.908805   0.023481
   19  C  1  Z    0.388599  -0.245474  -0.968965  -4.882142  -0.129527
   20  C  1 XX   -0.303793   0.319698   0.564021  -0.049798   0.031222
   21  C  1 YY    0.591749   2.641053  -0.671349  -1.841778  -0.041036
   22  C  1 ZZ   -0.287956  -2.960751   0.107327   1.891576   0.009815
   23  C  1 XY   -0.006379   0.015101  -0.024870  -0.040412   1.613379
   24  C  1 XZ    0.067312   0.018825   0.016710  -0.041331   2.184552
   25  C  1 YZ    0.828461   0.392186   0.277748   0.209485  -0.009125
   26  C  2  S   -0.007936  -0.088696  -0.030737  -0.051032  -0.001636
   27  C  2  S    0.090714  -0.084833  -0.010513   0.135702   0.002581
   28  C  2  S    2.542097  10.126426   2.747787   2.896754   0.136275
   29  C  2  X   -0.007261  -0.002080  -0.000404   0.007937  -0.319512
   30  C  2  Y    0.067467  -0.022720  -0.017680   0.001334   0.002617
   31  C  2  Z   -0.191478   0.184298  -0.000586  -0.081944  -0.003004
   32  C  2  X   -0.063338  -0.000646   0.022806   0.035896  -1.445975
   33  C  2  Y   -0.544526   1.103265   3.279461   0.620901   0.011987
   34  C  2  Z   -3.150206  -2.979153   2.582014  -1.443254  -0.101633
   35  C  2 XX    0.010403  -0.050121   0.003001   0.010890   0.000421
   36  C  2 YY   -0.013933   0.004630   0.006975  -0.027500  -0.000902
   37  C  2 ZZ    0.003531   0.045491  -0.009976   0.016610   0.000481
   38  C  2 XY   -0.000453   0.000627   0.000116  -0.001049   0.027544
   39  C  2 XZ   -0.000011   0.000126   0.000260   0.000293  -0.033199
   40  C  2 YZ   -0.032074   0.007779   0.009769  -0.014522   0.000117
   41  C  2  S   -4.322200   5.552463   5.762884  15.786041   0.415260
   42  C  2  X   -0.018945   0.000559   0.009217  -0.005330  -0.387224
   43  C  2  Y   -0.195205   0.465457   0.976936  -1.179097  -0.029468
   44  C  2  Z    0.383906  -0.747312  -0.692218  -3.831570  -0.110194
   45  C  2 XX    0.242812  -0.343908  -0.021262  -0.372541  -0.010450
   46  C  2 YY    0.313002  -0.548807   1.479966  -0.917891  -0.021766
   47  C  2 ZZ   -0.555814   0.892715  -1.458705   1.290432   0.032216
   48  C  2 XY   -0.035868  -0.009302   0.007534  -0.006281   0.053100
   49  C  2 XZ   -0.040855   0.002382  -0.015948  -0.021839   1.903545
   50  C  2 YZ   -0.959348   0.267474  -0.354634   1.053101   0.000180
   51  H  3  S   -0.184482  -0.023872   0.046524  -0.153124  -0.002218
   52  H  3  S    2.356907  -3.987871  -7.358990  -3.078805  -0.029275
   53  H  3  X   -0.000952  -0.000149  -0.000123  -0.000192  -0.001799
   54  H  3  Y   -0.006734   0.015075   0.008735  -0.036116  -0.000317
[...]
 II,JST,KST,LST =  2  1  1  1 NREC =         1 INTLOC =    1
 II,JST,KST,LST =  3  1  1  1 NREC =         1 INTLOC =    1
 II,JST,KST,LST =  4  1  1  1 NREC =         1 INTLOC =    1
 II,JST,KST,LST =  5  1  1  1 NREC =         1 INTLOC =    1
 II,JST,KST,LST =  6  1  1  1 NREC =         1 INTLOC =    1
 II,JST,KST,LST =  7  1  1  1 NREC =         1 INTLOC =    4
 II,JST,KST,LST =  8  1  1  1 NREC =         1 INTLOC =   49
 II,JST,KST,LST =  9  1  1  1 NREC =         1 INTLOC =   49
 II,JST,KST,LST = 10  1  1  1 NREC =         1 INTLOC =   64
 II,JST,KST,LST = 11  1  1  1 NREC =         1 INTLOC =  482
 II,JST,KST,LST = 12  1  1  1 NREC =         1 INTLOC =  482
 II,JST,KST,LST = 13  1  1  1 NREC =         1 INTLOC =  856
 II,JST,KST,LST = 14  1  1  1 NREC =         1 INTLOC =  856
 II,JST,KST,LST = 15  1  1  1 NREC =         1 INTLOC = 1699
 II,JST,KST,LST = 16  1  1  1 NREC =         1 INTLOC = 7916
 II,JST,KST,LST = 17  1  1  1 NREC =         1 INTLOC = 7916
 II,JST,KST,LST = 18  1  1  1 NREC =         1 INTLOC = 7916
 II,JST,KST,LST = 19  1  1  1 NREC =         1 INTLOC = 7916
 II,JST,KST,LST = 20  1  1  1 NREC =         1 INTLOC = 7916
 II,JST,KST,LST = 21  1  1  1 NREC =         2 INTLOC =  794
 II,JST,KST,LST = 22  1  1  1 NREC =         3 INTLOC = 7191
 II,JST,KST,LST = 23  1  1  1 NREC =         3 INTLOC = 7191
 II,JST,KST,LST = 24  1  1  1 NREC =         4 INTLOC = 3816
 II,JST,KST,LST = 25  1  1  1 NREC =         4 INTLOC = 8492
 II,JST,KST,LST = 26  1  1  1 NREC =         5 INTLOC = 6061
 II,JST,KST,LST = 27  1  1  1 NREC =         5 INTLOC =13563
 II,JST,KST,LST = 28  1  1  1 NREC =         7 INTLOC = 1488
 II,JST,KST,LST = 29  1  1  1 NREC =         8 INTLOC =11265
 II,JST,KST,LST = 30  1  1  1 NREC =         9 INTLOC =13594
 II,JST,KST,LST = 31  1  1  1 NREC =        10 INTLOC = 3494
 II,JST,KST,LST = 32  1  1  1 NREC =        11 INTLOC = 2521
 II,JST,KST,LST = 33  1  1  1 NREC =        13 INTLOC = 6654
 II,JST,KST,LST = 34  1  1  1 NREC =        17 INTLOC = 6209
 II,JST,KST,LST = 35  1  1  1 NREC =        18 INTLOC = 7701
 II,JST,KST,LST = 36  1  1  1 NREC =        19 INTLOC =  826
 II,JST,KST,LST = 37  1  1  1 NREC =        20 INTLOC = 3561
 II,JST,KST,LST = 38  1  1  1 NREC =        22 INTLOC =11669
 II,JST,KST,LST = 39  1  1  1 NREC =        22 INTLOC =11669
 II,JST,KST,LST = 40  1  1  1 NREC =        27 INTLOC = 2453
 II,JST,KST,LST = 41  1  1  1 NREC =        31 INTLOC = 3292
 II,JST,KST,LST = 42  1  1  1 NREC =        34 INTLOC =11448
 II,JST,KST,LST = 43  1  1  1 NREC =        39 INTLOC =12396
 II,JST,KST,LST = 44  1  1  1 NREC =        43 INTLOC = 4670
 II,JST,KST,LST = 45  1  1  1 NREC =        44 INTLOC = 9051
 II,JST,KST,LST = 46  1  1  1 NREC =        51 INTLOC = 5359
 II,JST,KST,LST = 47  1  1  1 NREC =        59 INTLOC =12878
 II,JST,KST,LST = 48  1  1  1 NREC =        59 INTLOC =12878
 II,JST,KST,LST = 49  1  1  1 NREC =        76 INTLOC = 6440
 II,JST,KST,LST = 50  1  1  1 NREC =        80 INTLOC =  423
 II,JST,KST,LST = 51  1  1  1 NREC =        95 INTLOC =11210
 II,JST,KST,LST = 52  1  1  1 NREC =       117 INTLOC = 4922
 II,JST,KST,LST = 53  1  1  1 NREC =       117 INTLOC = 4922
 II,JST,KST,LST = 54  1  1  1 NREC =       128 INTLOC =10939
 II,JST,KST,LST = 55  1  1  1 NREC =       145 INTLOC = 6436
 II,JST,KST,LST = 56  1  1  1 NREC =       149 INTLOC =10932
 II,JST,KST,LST = 57  1  1  1 NREC =       160 INTLOC =11404
 II,JST,KST,LST = 58  1  1  1 NREC =       165 INTLOC =13595
 II,JST,KST,LST = 59  1  1  1 NREC =       171 INTLOC = 8479
 II,JST,KST,LST = 60  1  1  1 NREC =       180 INTLOC =11060
 II,JST,KST,LST = 61  1  1  1 NREC =       187 INTLOC =10152
 II,JST,KST,LST = 62  1  1  1 NREC =       195 INTLOC = 2813
 II,JST,KST,LST = 63  1  1  1 NREC =       207 INTLOC =12680
 II,JST,KST,LST = 64  1  1  1 NREC =       212 INTLOC = 4546
 II,JST,KST,LST = 65  1  1  1 NREC =       227 INTLOC =11852
 II,JST,KST,LST = 66  1  1  1 NREC =       239 INTLOC =12341
 SCHWARZ INEQUALITY TEST SKIPPED       53187 INTEGRAL BLOCKS.
 TOTAL NUMBER OF NONZERO TWO-ELECTRON INTEGRALS =            66541007
       4448 INTEGRAL RECORDS WERE STORED ON DISK FILE  8.
  ...... END OF TWO-ELECTRON INTEGRALS .....
 CPU     0: STEP CPU TIME=     0.26 TOTAL CPU TIME=         22.9 (      0.4 MIN)
 TOTAL WALL CLOCK TIME=         23.3 SECONDS, CPU UTILIZATION IS    98.42%

          ---------------------------------------------
          MONOMER ELECTROSTATIC INTERACTION (OWN BASIS)
          ---------------------------------------------

          -------------
          GUESS OPTIONS
          -------------
          GUESS =MOSAVED           NORB  =       0          NORDER=       0
          MIX   =       F          PRTMO =       F          PUNMO =       F
          TOLZ  = 1.0E-08          TOLE  = 1.0E-05
          SYMDEN=       F          PURIFY=       F

 INITIAL GUESS ORBITALS GENERATED BY MOSAVED  ROUTINE.

 STATISTICS FOR GENERATION OF SYMMETRY ORBITAL -Q- MATRIX
 NUMBER OF CARTESIAN ATOMIC ORBITALS=        154
 NUMBER OF SPHERICAL CONTAMINANTS DROPPED=     8
 NUMBER OF LINEARLY DEPENDENT MOS DROPPED=     0
 TOTAL NUMBER OF MOS IN VARIATION SPACE=     146
 ...... END OF INITIAL ORBITAL SELECTION ......
 CPU     0: STEP CPU TIME=     0.01 TOTAL CPU TIME=         22.9 (      0.4 MIN)
 TOTAL WALL CLOCK TIME=         23.3 SECONDS, CPU UTILIZATION IS    98.42%

          ---------------------------
                  UHF SCF CALCULATION
          ---------------------------

 FINAL UHF ENERGY IS     -155.2899578228 AFTER   1 ITERATIONS
 ...... END OF UHF CALCULATION ......
 CPU     0: STEP CPU TIME=     0.08 TOTAL CPU TIME=         23.0 (      0.4 MIN)
 TOTAL WALL CLOCK TIME=         23.4 SECONDS, CPU UTILIZATION IS    98.37%

          -------------
          GUESS OPTIONS
          -------------
          GUESS =MOSAVED           NORB  =       0          NORDER=       0
          MIX   =       F          PRTMO =       F          PUNMO =       F
          TOLZ  = 1.0E-08          TOLE  = 1.0E-05
          SYMDEN=       F          PURIFY=       F

 INITIAL GUESS ORBITALS GENERATED BY MOSAVED  ROUTINE.

 STATISTICS FOR GENERATION OF SYMMETRY ORBITAL -Q- MATRIX
 NUMBER OF CARTESIAN ATOMIC ORBITALS=        154
 NUMBER OF SPHERICAL CONTAMINANTS DROPPED=     8
 NUMBER OF LINEARLY DEPENDENT MOS DROPPED=     0
 TOTAL NUMBER OF MOS IN VARIATION SPACE=     146
 ...... END OF INITIAL ORBITAL SELECTION ......
 CPU     0: STEP CPU TIME=     0.01 TOTAL CPU TIME=         23.0 (      0.4 MIN)
 TOTAL WALL CLOCK TIME=         23.4 SECONDS, CPU UTILIZATION IS    98.37%

          ---------------------------
                  UHF SCF CALCULATION
          ---------------------------

 DIRECT SCF CALCULATION, SCHWRZ=T   FDIFF=T
 SCHWARZ INEQUALITY OVERHEAD:     11926 INTEGRALS, T=        0.00

 FINAL UHF ENERGY IS     -331.0702207239 AFTER   1 ITERATIONS
 ...... END OF UHF CALCULATION ......
 CPU     0: STEP CPU TIME=     0.25 TOTAL CPU TIME=         23.2 (      0.4 MIN)
 TOTAL WALL CLOCK TIME=         23.6 SECONDS, CPU UTILIZATION IS    98.35%

 XEDA STEP ENERGY SUMMATION
 ETOT =       -155.28995782     ENUC =        102.32124458
 EEXCH=        -22.94136543

          --------------------------------------------------
          MONOMER EXCHANGE-REPULSION INTERACTION (OWN BASIS)
          --------------------------------------------------

          -------------
          GUESS OPTIONS
          -------------
          GUESS =MOSAVED           NORB  =       0          NORDER=       0
          MIX   =       F          PRTMO =       F          PUNMO =       F
          TOLZ  = 1.0E-08          TOLE  = 1.0E-05
          SYMDEN=       F          PURIFY=       F

 INITIAL GUESS ORBITALS GENERATED BY MOSAVED  ROUTINE.

 STATISTICS FOR GENERATION OF SYMMETRY ORBITAL -Q- MATRIX
 NUMBER OF CARTESIAN ATOMIC ORBITALS=        154
 NUMBER OF SPHERICAL CONTAMINANTS DROPPED=     8
 NUMBER OF LINEARLY DEPENDENT MOS DROPPED=     0
 TOTAL NUMBER OF MOS IN VARIATION SPACE=     146
 ...... END OF INITIAL ORBITAL SELECTION ......
 CPU     0: STEP CPU TIME=     0.01 TOTAL CPU TIME=         23.3 (      0.4 MIN)
 TOTAL WALL CLOCK TIME=         23.6 SECONDS, CPU UTILIZATION IS    98.35%

          ---------------------------
                  UHF SCF CALCULATION
          ---------------------------

 FINAL UHF ENERGY IS     -154.6305135663 AFTER   1 ITERATIONS
 ...... END OF UHF CALCULATION ......
 CPU     0: STEP CPU TIME=     0.08 TOTAL CPU TIME=         23.3 (      0.4 MIN)
 TOTAL WALL CLOCK TIME=         23.7 SECONDS, CPU UTILIZATION IS    98.30%

 XEDA STEP ENERGY SUMMATION
 ETOT =       -154.63051357     ENUC =        102.32124458

          ---------------------------------------------
          MONOMER ELECTROSTATIC INTERACTION (ALL BASIS)
          ---------------------------------------------

          -------------
          GUESS OPTIONS
          -------------
          GUESS =MOSAVED           NORB  =       0          NORDER=       0
          MIX   =       F          PRTMO =       F          PUNMO =       F
          TOLZ  = 1.0E-08          TOLE  = 1.0E-05
          SYMDEN=       F          PURIFY=       F

 INITIAL GUESS ORBITALS GENERATED BY MOSAVED  ROUTINE.

 STATISTICS FOR GENERATION OF SYMMETRY ORBITAL -Q- MATRIX
 NUMBER OF CARTESIAN ATOMIC ORBITALS=        154
 NUMBER OF SPHERICAL CONTAMINANTS DROPPED=     8
 NUMBER OF LINEARLY DEPENDENT MOS DROPPED=     0
 TOTAL NUMBER OF MOS IN VARIATION SPACE=     146
 ...... END OF INITIAL ORBITAL SELECTION ......
 CPU     0: STEP CPU TIME=     0.01 TOTAL CPU TIME=         23.3 (      0.4 MIN)
 TOTAL WALL CLOCK TIME=         23.7 SECONDS, CPU UTILIZATION IS    98.30%

          ---------------------------
                  UHF SCF CALCULATION
          ---------------------------

 FINAL UHF ENERGY IS     -155.2968648080 AFTER   1 ITERATIONS
 ...... END OF UHF CALCULATION ......
 CPU     0: STEP CPU TIME=     0.08 TOTAL CPU TIME=         23.4 (      0.4 MIN)
 TOTAL WALL CLOCK TIME=         23.8 SECONDS, CPU UTILIZATION IS    98.25%

          -------------
          GUESS OPTIONS
          -------------
          GUESS =MOSAVED           NORB  =       0          NORDER=       0
          MIX   =       F          PRTMO =       F          PUNMO =       F
          TOLZ  = 1.0E-08          TOLE  = 1.0E-05
          SYMDEN=       F          PURIFY=       F

 INITIAL GUESS ORBITALS GENERATED BY MOSAVED  ROUTINE.

 STATISTICS FOR GENERATION OF SYMMETRY ORBITAL -Q- MATRIX
 NUMBER OF CARTESIAN ATOMIC ORBITALS=        154
 NUMBER OF SPHERICAL CONTAMINANTS DROPPED=     8
 NUMBER OF LINEARLY DEPENDENT MOS DROPPED=     0
 TOTAL NUMBER OF MOS IN VARIATION SPACE=     146
 ...... END OF INITIAL ORBITAL SELECTION ......
 CPU     0: STEP CPU TIME=     0.01 TOTAL CPU TIME=         23.4 (      0.4 MIN)
 TOTAL WALL CLOCK TIME=         23.8 SECONDS, CPU UTILIZATION IS    98.25%

          ---------------------------
                  UHF SCF CALCULATION
          ---------------------------

 DIRECT SCF CALCULATION, SCHWRZ=T   FDIFF=T
 SCHWARZ INEQUALITY OVERHEAD:     11926 INTEGRALS, T=        0.00

 FINAL UHF ENERGY IS     -331.0925424668 AFTER   1 ITERATIONS
 ...... END OF UHF CALCULATION ......
 CPU     0: STEP CPU TIME=     0.25 TOTAL CPU TIME=         23.7 (      0.4 MIN)
 TOTAL WALL CLOCK TIME=         24.1 SECONDS, CPU UTILIZATION IS    98.23%

 XEDA STEP ENERGY SUMMATION
 ETOT =       -155.29686481     ENUC =        102.32124458
 EEXCH=        -22.94216399

          --------------------------------------------------
          MONOMER EXCHANGE-REPULSION INTERACTION (ALL BASIS)
          --------------------------------------------------

          -------------
          GUESS OPTIONS
          -------------
          GUESS =MOSAVED           NORB  =       0          NORDER=       0
          MIX   =       F          PRTMO =       F          PUNMO =       F
          TOLZ  = 1.0E-08          TOLE  = 1.0E-05
          SYMDEN=       F          PURIFY=       F

 INITIAL GUESS ORBITALS GENERATED BY MOSAVED  ROUTINE.

 STATISTICS FOR GENERATION OF SYMMETRY ORBITAL -Q- MATRIX
 NUMBER OF CARTESIAN ATOMIC ORBITALS=        154
 NUMBER OF SPHERICAL CONTAMINANTS DROPPED=     8
 NUMBER OF LINEARLY DEPENDENT MOS DROPPED=     0
 TOTAL NUMBER OF MOS IN VARIATION SPACE=     146
 ...... END OF INITIAL ORBITAL SELECTION ......
 CPU     0: STEP CPU TIME=     0.01 TOTAL CPU TIME=         23.7 (      0.4 MIN)
 TOTAL WALL CLOCK TIME=         24.1 SECONDS, CPU UTILIZATION IS    98.23%

          ---------------------------
                  UHF SCF CALCULATION
          ---------------------------

 FINAL UHF ENERGY IS     -154.6354510826 AFTER   1 ITERATIONS
 ...... END OF UHF CALCULATION ......
 CPU     0: STEP CPU TIME=     0.08 TOTAL CPU TIME=         23.8 (      0.4 MIN)
 TOTAL WALL CLOCK TIME=         24.2 SECONDS, CPU UTILIZATION IS    98.18%

 XEDA STEP ENERGY SUMMATION
 ETOT =       -154.63545108     ENUC =        102.32124458

          --------------------------------
          RESULTS OF INTERACTION ANALYSIS
          --------------------------------

     ENERGY TERMS
     T   ELECTRON KINETIC AND COULOMB POTENTIAL
     X   E-E EXCHANGE COMBINE WITH DIAGNANAL VALUE
     N   NUCLEUS-NUCLEUS REPULSION ENERGY

 --------------
 MONOMER ENERGY
 --------------

 MONOMER    1

                   OWN BASIS           ALL BASIS

 T              -93.95847754        -93.95881730
 X              -11.31406343        -11.31430023
 N               27.89482885         27.89482885
 EC              -0.47431866         -0.47477329
 E              -77.85203078        -77.85306197

 MONOMER    2

                   OWN BASIS           ALL BASIS

 T              -93.95844254        -93.95878089
 X              -11.31405720        -11.31429116
 N               27.89478746         27.89478746
 EC              -0.47432431         -0.47479669
 E              -77.85203659        -77.85308128

 ------------------------------------------------------------
 SUPER MOLECULE ENERGY  USING NON-ANTISYMMETRIC WAVEFUNCTION
 (ELECTROSTATIC ENERGY: T N CHANGE)
 ------------------------------------------------------------

              FROM OWN BASIS      FROM ALL BASIS
 T             -234.66983697       -234.67594539
 X              -22.62812063        -22.62859139
 N              102.32124458        102.32124458
 E             -154.97671302       -154.98329220

 ----------------------------------------------------------------------
 SUPER MOLECULE ENERGY  USING ANTISYMMETRIC NONORTHONORMAL WAVEFUNCTION
 (EXCHANGE ENERGY: ONLY X CHANGES)
 ----------------------------------------------------------------------

              FROM OWN BASIS      FROM ALL BASIS
 T             -234.66983697       -234.67594539
 X              -22.94136543        -22.94216399
 N              102.32124458        102.32124458
 E             -155.28995782       -155.29686481

 -----------------------------------------------------------------------
 SUPER MOLECULE ENERGY  USING ANTISYMMETRIC AND ORTHONORMAL WAVEFUNCTION
 (REPULSION ENERGY: T X CHANGE)
 -----------------------------------------------------------------------

              FROM OWN BASIS      FROM ALL BASIS
 T+X           -256.95175814       -256.95669566
 N              102.32124458        102.32124458
 E             -154.63051357       -154.63545108

 ---------------------------------------------
 SUPER MOLECULE ENERGY  USING SCF WAVEFUNCTION
 (POLARIZATION ENERGY: T X CHANGE)
 ---------------------------------------------
 T+X           -257.22703944
 N              102.32124458
 EC              -0.98476258
 E             -155.89055744


                   *******************************
                   SUMMARY OF INTERACTION ENERGIES
                     XEDA IN XIAMEN UNIVERSITY    
                    - ZHEN TANG AND PEIFENG SU -  
                   *******************************


 -------------
 OWN BASIS SET                                       HARTREE          KCAL/MOL
 -------------
 ELECTROSTATIC ENERGY                  ES=         -0.221289           -138.86
 EXCHANGE ENERGY                       EX=         -0.313245           -196.56
 REPULSION ENERGY                     REP=          0.659444            413.81
 POLARIZATION ENERGY                  POL=         -0.275281           -172.74
 ELECTRON CORRELATION                CORR=         -0.036120            -22.67
 TOTAL INTERACTION ENERGY               E=         -0.186490           -117.02
  

 -------------
 ALL BASIS SET                                       HARTREE          KCAL/MOL
 -------------
 ELECTROSTATIC ENERGY                  ES=         -0.226719           -142.27
 EXCHANGE ENERGY                       EX=         -0.313573           -196.77
 REPULSION ENERGY                     REP=          0.661414            415.04
 POLARIZATION ENERGY                  POL=         -0.270344           -169.64
 ELECTRON CORRELATION                CORR=         -0.035193            -22.08
 TOTAL INTERACTION ENERGY               E=         -0.184414           -115.72
  

                     ***************************
                     END OF INTERACTION ANALYSIS
                     ***************************

              1301896  WORDS OF DYNAMIC MEMORY USED
 EXECUTION OF GAMESS TERMINATED NORMALLY 14:31:51 25-DEC-2023    
 DDI: 263640 bytes (0.3 MB / 0 MWords) used by master data server.

 ----------------------------------------
 CPU timing information for all processes
 ========================================
 0: 23.111 + 0.651 = 23.763
 1: 22.974 + 0.513 = 23.488
 2: 22.918 + 0.559 = 23.478
 3: 22.877 + 0.521 = 23.399
 4: 22.980 + 0.595 = 23.576
 5: 22.899 + 0.555 = 23.454
 6: 22.892 + 0.585 = 23.477
 7: 22.860 + 0.541 = 23.401
 8: 22.858 + 0.653 = 23.511
 9: 22.921 + 0.480 = 23.401
 10: 22.890 + 0.533 = 23.423
 11: 22.881 + 0.497 = 23.379
 12: 22.938 + 0.557 = 23.495
 13: 22.863 + 0.529 = 23.393
 14: 22.849 + 0.581 = 23.431
 15: 22.882 + 0.506 = 23.389
 ----------------------------------------
 ddikick.x: exited gracefully.
----- accounting info -----
Files used on the master node w016 were:
-rw-r--r-- 1 xacs0647 10000  2703863 Dec 25 14:31 /job_dir/20_1685744/20.dat
-rw-r--r-- 1 xacs0647 10000      243 Dec 25 14:31 /job_dir/20_1685744/20.err
-rw-r--r-- 1 xacs0647 10000      837 Dec 25 14:31 /job_dir/20_1685744/20.F05
-rw-r--r-- 1 xacs0647 10000 48964352 Dec 25 14:31 /job_dir/20_1685744/20.F08
-rw-r--r-- 1 xacs0647 10000 47524224 Dec 25 14:31 /job_dir/20_1685744/20.F08.001
-rw-r--r-- 1 xacs0647 10000 46084096 Dec 25 14:31 /job_dir/20_1685744/20.F08.002
-rw-r--r-- 1 xacs0647 10000 49324384 Dec 25 14:31 /job_dir/20_1685744/20.F08.003
-rw-r--r-- 1 xacs0647 10000 56164992 Dec 25 14:31 /job_dir/20_1685744/20.F08.004
-rw-r--r-- 1 xacs0647 10000 44643968 Dec 25 14:31 /job_dir/20_1685744/20.F08.005
-rw-r--r-- 1 xacs0647 10000 49144368 Dec 25 14:31 /job_dir/20_1685744/20.F08.006
-rw-r--r-- 1 xacs0647 10000 48964352 Dec 25 14:31 /job_dir/20_1685744/20.F08.007
-rw-r--r-- 1 xacs0647 10000 52564672 Dec 25 14:31 /job_dir/20_1685744/20.F08.008
-rw-r--r-- 1 xacs0647 10000 53104720 Dec 25 14:31 /job_dir/20_1685744/20.F08.009
-rw-r--r-- 1 xacs0647 10000 45004000 Dec 25 14:31 /job_dir/20_1685744/20.F08.010
-rw-r--r-- 1 xacs0647 10000 49504400 Dec 25 14:31 /job_dir/20_1685744/20.F08.011
-rw-r--r-- 1 xacs0647 10000 58685216 Dec 25 14:31 /job_dir/20_1685744/20.F08.012
-rw-r--r-- 1 xacs0647 10000 50764512 Dec 25 14:31 /job_dir/20_1685744/20.F08.013
-rw-r--r-- 1 xacs0647 10000 47524224 Dec 25 14:31 /job_dir/20_1685744/20.F08.014
-rw-r--r-- 1 xacs0647 10000 52744688 Dec 25 14:31 /job_dir/20_1685744/20.F08.015
-rw-r--r-- 1 xacs0647 10000  5758720 Dec 25 14:31 /job_dir/20_1685744/20.F10
-rw-r--r-- 1 xacs0647 10000      837 Dec 25 14:31 /job_dir/20_1685744/20.inp
-rw-r--r-- 1 xacs0647 10000  2403254 Dec 25 14:31 /job_dir/20_1685744/20.out
Mon Dec 25 14:31:54 CST 2023
0.100u 0.046s 0:27.36 0.5%	0+0k 0+32io 0pf+0w
