----- GAMESS execution script 'rungms' -----
This job is running on host w014
under operating system Linux at Mon Dec 25 14:31:27 CST 2023
Available scratch disk space (Kbyte units) at beginning of the job is
Filesystem              1K-blocks    Used Available Use% Mounted on
/dev/mapper/system-root 932514944 2742996 929771948   1% /
GAMESS temporary binary files will be written to /job_dir/21_1685745
GAMESS supplementary output files will be written to /job_dir/21_1685745
Copying input file ./21.inp to your run's scratch directory...
 
Assuming a single but multicore node.
 

 Distributed Data Interface kickoff program.
 Initiating 16 compute processes on 1 nodes to run the following command:
 /share/apps/xeda-apps/xeda-td/gamess.00.x 21 

          *******************************************************
          *                                                     *
          *          GAMESS VERSION = 30 SEP 2020 (R2)          *
          *                                                     *
          *              doi.org/10.1063/5.0005188              *
          *                                                     *
          **************** 64 BIT LINUX VERSION *****************

  GAMESS HAS BEEN MADE POSSIBLE WITH IMPORTANT CONTRIBUTIONS FROM
  THE FOLLOWING INDIVIDUALS (IN ALPHABETICAL ORDER):

     IVANA ADAMOVIC, CHRISTINE AIKENS, TOMOKO AKAMA,
     YURI ALEXEEV, YURIKO AOKI, POOJA ARORA, TOSHIO ASADA,
     ANDREY ASADCHEV, KIM K. BALDRIDGE, PRADIPTA BANDYOPADHYAY,
     MARIA BARYSZ, ROB BELL, JONATHAN BENTZ, COLLEEN BERTONI,
     JERRY A. BOATZ, BRETT BODE, KURT BRORSEN, KURT R. BRORSEN,
     LAIMUTIS BYTAUTAS, CALEB CARLIN, LAURA CARRINGTON,
     GALINA CHABAN, BENOIT CHAMPAGNE, WEI CHEN, MAHITO CHIBA,
     DAN CHIPMAN, CHEOL HO CHOI, TANNER CULPITT,
     DIPAYAN DATTA, PAUL DAY, ALBERT DEFUSCO,
     NUWAN DESILVA, J. EMILIANO DEUSTUA,
     TIM DUDLEY, MICHEL DUPUIS, STEVEN T. ELBERT,
     DMITRI FEDOROV, ALEX FINDLATER, GRAHAM FLETCHER,
     MARK FREITAG, CHRISTIAN FRIEDL, DAVID GARMER,
     IGOR S. GERASIMOV, KURT GLAESEMANN, MARK S. GORDON,
     JEFFREY GOUR, FENG LONG GU, EMILIE B. GUIDEZ,
     ANASTASIA GUNINA, SHARON HAMMES-SCHIFFER, MASATAKE HARUTA,
     KIMIHIKO HIRAO, YASUHIRO IKABATA, TZVETELIN IORDANOV,
     STEPHAN IRLE, KAZUYA ISHIMURA, JOE IVANIC, FRANK JENSEN,
     JAN H. JENSEN, VISVALDAS KAIRYS, MUNEAKI KAMIYA,
     MICHIO KATOUDA, NAOAKI KAWAKAMI, DAN KEMP, BERNARD KIRTMAN,
     KAZUO KITAURA, MARIUSZ KLOBUKOWSKI, MASATO KOBAYASHI,
     PRAKASHAN KORAMBATH, JACEK KORCHOWIEC, SHIRO KOSEKI,
     KAROL KOWALSKI, JIMMY KROMANN, STANISLAW KUCHARSKI,
     HENRY KURTZ, SAROM SOK LEANG, HUI LI, SHUHUA LI, WEI LI,
     JESSE LUTZ, ALEKSANDR O. LYKHIN, MARCIN MAKOWSKI,
     JOANI MATO, NIKITA MATSUNAGA, BENEDETTA MENNUCCI,
     GRANT MERRILL, NORIYUKI MINEZAWA, VLADIMIR MIRONOV,
     EISAKU MIYOSHI, JOHN A. MONTGOMERY JR., HIROTOSHI MORI,
     JONATHAN MULLIN, MONIKA MUSIAL, SHIGERU NAGASE,
     TAKESHI NAGATA, HIROMI NAKAI, TAKAHITO NAKAJIMA,
     YUYA NAKAJIMA, HARUYUKI NAKANO, HIROYA NAKATA, SEAN NEDD,
     HEATHER NETZLOFF, KIET A. NGUYEN, YOSHIO NISHIMOTO,
     BOSILJKA NJEGIC, RYAN OLSON, MIKE PAK, ROBERTO PEVERATI,
     BUU PHAM, PIOTR PIECUCH, ANNA POMOGAEVA, DAVID POOLE,
     SPENCER PRUITT, OLIVIER QUINET, LUKE ROSKOP,
     KLAUS RUEDENBERG, ANDREW SAND, TOSAPORN SATTASATHUCHANA,
     NOZOMI SAWADA, MICHAEL W. SCHMIDT, PATRICK E. SCHNEIDER,
     JUNJI SEINO, PRACHI SHARMA, JUN SHEN, JIM SHOEMAKER,
     YINAN SHU, DEJUN SI, JONATHAN SKONE, LYUDMILA SLIPCHENKO,
     TONY SMITH, JIE SONG, MARK SPACKMAN, CASPER STEINMANN,
     WALT STEVENS, PEIFENG SU, SHUJUN SU, CHET SWALINA,
     TETSUYA TAKETSUGU, ZHEN TAO, NANDUN THELLAMUREGE
     SEIKEN TOKURA, JACOPO TOMASI, TSUGUKI TOUMA, TAKAO TSUNEDA,
     HIROAKI UMEDA, JORGE LUIS GALVEZ VALLEJO, YALI WANG,
     SIMON WEBB, AARON WEST, THERESA L. WINDUS, MARTA WLOCH,
     PENG XU, KIYOSHI YAGI, SUSUMU YANAGISAWA, YANG YANG,
     SOOHAENG YOO, TAKESHI YOSHIKAWA, FEDERICO ZAHARIEV,
     TOBY ZENG

  WHO ARE SUPPORTED BY THEIR INSTITUTION/UNIVERSITY/COMPANY/GROUP
  (IN ALPHABETICAL ORDER):

     EP ANALYTICS, FACULTES UNIVERSITAIRES NOTRE-DAME DE LA PAIX,
     INSTITUTE FOR MOLECULAR SCIENCE, IOWA STATE UNIVERSITY,
     JACKSON STATE UNIVERSITY, JOHANNES KEPLER UNIVERSITY LINZ,
     KYUSHU UNIVERSITY, MICHIGAN STATE UNIVERSITY,
     MIE UNIVERSITY, MOSCOW STATE UNIVERSITY,
     N. COPERNICUS UNIVERSITY, NAGOYA UNIVERSITY,
     NANJING UNIVERSITY, NAT. INST. OF ADVANCED INDUSTRIAL
     SCIENCE AND TECHNOLOGY, NATIONAL INST. OF STANDARDS AND
     TECHNOLOGY, NESMEYANOV INSTITUTE OF ORGANOELEMENT COMPOUNDS
     OF RUSSIAN ACADEMY OF SCIENCES, OSAKA PREFECTURE UNIVERSITY,
     PENNSYLVANIA STATE UNIVERSITY, TOKYO INSTITUTE OF TECHNOLOGY,
     UNIVERSITY OF AARHUS, UNIVERSITY OF ALBERTA,
     UNIVERSITY OF CALIFORNIA AT SANTA BARBARA,
     UNIVERSITY OF COPENHAGEN, UNIVERSITY OF IOWA,
     UNIVERSITY OF MEMPHIS, UNIVERSITY OF MINNESOTA,
     UNIVERSITY OF NEBRASKA, UNIVERSITY OF NEW ENGLAND,
     UNIVERSITY OF NOTRE DAME, UNIVERSITY OF PISA,
     UNIVERSITY OF SILESIA, UNIVERSITY OF TOKYO,
     UNIVERSITY OF ZURICH, WASEDA UNIVERSITY, YALE UNIVERSITY

  GAMESS SOFTWARE MANAGEMENT TEAM FOR THIS RELEASE:
     MARK S. GORDON (TEAM LEAD),
     BRETT BODE (SENIOR ADVISOR),
     GIUSEPPE BARCA,
     COLLEEN BERTONI,
     KRISTOPHER KEIPERT (ADVISOR),
     SAROM S. LEANG (DEVELOPMENT LEAD),
     BUU PHAM,
     JORGE LUIS GALVEZ VALLEJO (WEBSITE ADMINISTRATOR),
     PENG XU


 PARALLEL VERSION RUNNING ON       16 PROCESSORS IN        1 NODES.

 EXECUTION OF GAMESS BEGUN 14:31:27 25-DEC-2023    

            ECHO OF THE FIRST FEW INPUT CARDS -
 INPUT CARD> $CONTRL SCFTYP=UHF RUNTYP=EDA dfttyp=B3LYP ispher=1 icharg=0 mult=1 $END       
 INPUT CARD> $SYSTEM  mwords=150 memddi=150 $END                                            
 INPUT CARD> $BASIS gbasis=accd $END                                                        
 INPUT CARD> $LMOEDA MATOM(1)=5 5 MCHARG(1)=0 0 MMULT(1)=2 -2 edatyp=gks $end               
 INPUT CARD> $scf DIIS=.TRUE. ETHRSH=2.0 SWDIIS=0.005 $end                                  
 INPUT CARD> $data                                                                          
 INPUT CARD> EDA calculation with XEDA 1.0                                                  
 INPUT CARD> c1                                                                             
 INPUT CARD>C   6   -0.2534504763    0.7045553661   -1.6524134473                           
 INPUT CARD>C   6   -0.2534504763    0.7045553661   -0.2973679210                           
 INPUT CARD>H   1   -0.2018818024    1.6593477533    0.2404290103                           
 INPUT CARD>H   1   -0.2884884910   -0.2235968238   -2.2312403605                           
 INPUT CARD>H   1   -0.2260723582    1.6323884459   -2.2287967099                           
 INPUT CARD>C   6   -0.2534504763   -0.5412717450    0.5402398412                           
 INPUT CARD>C   6    0.7204170706   -0.8549734632    1.4286784858                           
 INPUT CARD>H   1    1.5673779470   -0.1883638167    1.6184779037                           
 INPUT CARD>H   1    0.7000592553   -1.7850797497    2.0016784975                           
 INPUT CARD>H   1   -1.0755029870   -1.2478834000    0.3715911691                           
 INPUT CARD> $end                                                                           
  150000000 WORDS OF MEMORY AVAILABLE

     BASIS OPTIONS
     -------------
     GBASIS=ACCD         IGAUSS=       0      POLAR=NONE    
     NDFUNC=       0     NFFUNC=       0     DIFFSP=       F
     NPFUNC=       0      DIFFS=       F     BASNAM=        


     RUN TITLE
     ---------
  EDA calculation with XEDA 1.0                                                  

 THE POINT GROUP OF THE MOLECULE IS C1      
 THE ORDER OF THE PRINCIPAL AXIS IS     0

 ATOM      ATOMIC                      COORDINATES (BOHR)
           CHARGE         X                   Y                   Z
 C           6.0    -0.4789519517        1.3314165851       -3.1226086338
 C           6.0    -0.4789519517        1.3314165851       -0.5619438882
 H           1.0    -0.3815012884        3.1357125721        0.4543449490
 H           1.0    -0.5451641986       -0.4225367287       -4.2164328941
 H           1.0    -0.4272148104        3.0847668683       -4.2118150640
 C           6.0    -0.4789519517       -1.0228552829        1.0209052675
 C           6.0     1.3613908603       -1.6156655722        2.6998108627
 H           1.0     2.9619148390       -0.3559559996        3.0584797552
 H           1.0     1.3229201677       -3.3733115932        3.7826238758
 H           1.0    -2.0324059444       -2.3581576906        0.7022054891

          INTERNUCLEAR DISTANCES (ANGS.)
          ------------------------------

                1 C          2 C          3 H          4 H          5 H     

   1 C       0.0000000    1.3550455 *  2.1206462 *  1.0944107 *  1.0926305 *
   2 C       1.3550455 *  0.0000000    1.0970476 *  2.1453570 *  2.1429048 *
   3 H       2.1206462 *  1.0970476 *  0.0000000    3.1083968    2.4694914 *
   4 H       1.0944107 *  2.1453570 *  3.1083968    0.0000000    1.8570361 *
   5 H       1.0926305 *  2.1429048 *  2.4694914 *  1.8570361 *  0.0000000  
   6 C       2.5218671 *  1.5012235 *  2.2215472 *  2.7898472 *  3.5203852  
   7 C       3.5879905    2.5218613 *  2.9299118 *  3.8485754    4.5232661  
   8 H       3.8485648    2.7898362 *  2.9057420 *  4.2738522    4.6187796  
   9 H       4.5232568    3.5203804    3.9723517    4.6187723    5.5166774  
  10 H       2.9299116 *  2.2215521 *  3.0384882    2.9057334 *  3.9723438  

                6 C          7 C          8 H          9 H         10 H     

   1 C       2.5218671 *  3.5879905    3.8485648    4.5232568    2.9299116 *
   2 C       1.5012235 *  2.5218613 *  2.7898362 *  3.5203804    2.2215521 *
   3 H       2.2215472 *  2.9299118 *  2.9057420 *  3.9723517    3.0384882  
   4 H       2.7898472 *  3.8485754    4.2738522    4.6187723    2.9057334 *
   5 H       3.5203852    4.5232661    4.6187796    5.5166774    3.9723438  
   6 C       0.0000000    1.3550461 *  2.1453572 *  2.1429051 *  1.0970473 *
   7 C       1.3550461 *  0.0000000    1.0944108 *  1.0926304 *  2.1206463 *
   8 H       2.1453572 *  1.0944108 *  0.0000000    1.8570369 *  3.1083964  
   9 H       2.1429051 *  1.0926304 *  1.8570369 *  0.0000000    2.4694910 *
  10 H       1.0970473 *  2.1206463 *  3.1083964    2.4694910 *  0.0000000  

  * ... LESS THAN  3.000


     ATOMIC BASIS SET
     ----------------
 THE CONTRACTED PRIMITIVE FUNCTIONS HAVE BEEN UNNORMALIZED
 THE CONTRACTED BASIS FUNCTIONS ARE NOW NORMALIZED TO UNITY

  SHELL TYPE  PRIMITIVE        EXPONENT          CONTRACTION COEFFICIENT(S)

 C         

      1   S       1          6665.0000000    0.000691583963
      1   S       2          1000.0000000    0.005325796153
      1   S       3           228.0000000    0.027060721042
      1   S       4            64.7100000    0.101656846141
      1   S       5            21.0600000    0.274574823617
      1   S       6             7.4950000    0.448294318924
      1   S       7             2.7970000    0.284902610715
      1   S       8             0.5215000    0.015194859206

      2   S       9          6665.0000000   -0.000293269653
      2   S      10          1000.0000000   -0.002318035474
      2   S      11           228.0000000   -0.011499786039
      2   S      12            64.7100000   -0.046826727010
      2   S      13            21.0600000   -0.128466168750
      2   S      14             7.4950000   -0.301266272463
      2   S      15             2.7970000   -0.255630702330
      2   S      16             0.5215000    1.093793361012

      3   S      17             0.1596000    1.000000000000

      4   P      18             9.4390000    0.056979251590
      4   P      19             2.0020000    0.313207211501
      4   P      20             0.5456000    0.760376741738

      5   P      21             0.1517000    1.000000000000

      6   D      22             0.5500000    1.000000000000

      7   S      23             0.0469000    1.000000000000

      8   P      24             0.0404100    1.000000000000

      9   D      25             0.1510000    1.000000000000

 C         

     10   S      26          6665.0000000    0.000691583963
     10   S      27          1000.0000000    0.005325796153
     10   S      28           228.0000000    0.027060721042
     10   S      29            64.7100000    0.101656846141
     10   S      30            21.0600000    0.274574823617
     10   S      31             7.4950000    0.448294318924
     10   S      32             2.7970000    0.284902610715
     10   S      33             0.5215000    0.015194859206

     11   S      34          6665.0000000   -0.000293269653
     11   S      35          1000.0000000   -0.002318035474
     11   S      36           228.0000000   -0.011499786039
     11   S      37            64.7100000   -0.046826727010
     11   S      38            21.0600000   -0.128466168750
     11   S      39             7.4950000   -0.301266272463
     11   S      40             2.7970000   -0.255630702330
     11   S      41             0.5215000    1.093793361012

     12   S      42             0.1596000    1.000000000000

     13   P      43             9.4390000    0.056979251590
     13   P      44             2.0020000    0.313207211501
     13   P      45             0.5456000    0.760376741738

     14   P      46             0.1517000    1.000000000000

     15   D      47             0.5500000    1.000000000000

     16   S      48             0.0469000    1.000000000000

     17   P      49             0.0404100    1.000000000000

     18   D      50             0.1510000    1.000000000000

 H         

     19   S      51            13.0100000    0.033498726390
     19   S      52             1.9620000    0.234800801174
     19   S      53             0.4446000    0.813682957883

     20   S      54             0.1220000    1.000000000000

     21   P      55             0.7270000    1.000000000000

     22   S      56             0.0297400    1.000000000000

     23   P      57             0.1410000    1.000000000000

 H         

     24   S      58            13.0100000    0.033498726390
     24   S      59             1.9620000    0.234800801174
     24   S      60             0.4446000    0.813682957883

     25   S      61             0.1220000    1.000000000000

     26   P      62             0.7270000    1.000000000000

     27   S      63             0.0297400    1.000000000000

     28   P      64             0.1410000    1.000000000000

 H         

     29   S      65            13.0100000    0.033498726390
     29   S      66             1.9620000    0.234800801174
     29   S      67             0.4446000    0.813682957883

     30   S      68             0.1220000    1.000000000000

     31   P      69             0.7270000    1.000000000000

     32   S      70             0.0297400    1.000000000000

     33   P      71             0.1410000    1.000000000000

 C         

     34   S      72          6665.0000000    0.000691583963
     34   S      73          1000.0000000    0.005325796153
     34   S      74           228.0000000    0.027060721042
     34   S      75            64.7100000    0.101656846141
     34   S      76            21.0600000    0.274574823617
     34   S      77             7.4950000    0.448294318924
     34   S      78             2.7970000    0.284902610715
     34   S      79             0.5215000    0.015194859206

     35   S      80          6665.0000000   -0.000293269653
     35   S      81          1000.0000000   -0.002318035474
     35   S      82           228.0000000   -0.011499786039
     35   S      83            64.7100000   -0.046826727010
     35   S      84            21.0600000   -0.128466168750
     35   S      85             7.4950000   -0.301266272463
     35   S      86             2.7970000   -0.255630702330
     35   S      87             0.5215000    1.093793361012

     36   S      88             0.1596000    1.000000000000

     37   P      89             9.4390000    0.056979251590
     37   P      90             2.0020000    0.313207211501
     37   P      91             0.5456000    0.760376741738

     38   P      92             0.1517000    1.000000000000

     39   D      93             0.5500000    1.000000000000

     40   S      94             0.0469000    1.000000000000

     41   P      95             0.0404100    1.000000000000

     42   D      96             0.1510000    1.000000000000

 C         

     43   S      97          6665.0000000    0.000691583963
     43   S      98          1000.0000000    0.005325796153
     43   S      99           228.0000000    0.027060721042
     43   S     100            64.7100000    0.101656846141
     43   S     101            21.0600000    0.274574823617
     43   S     102             7.4950000    0.448294318924
     43   S     103             2.7970000    0.284902610715
     43   S     104             0.5215000    0.015194859206

     44   S     105          6665.0000000   -0.000293269653
     44   S     106          1000.0000000   -0.002318035474
     44   S     107           228.0000000   -0.011499786039
     44   S     108            64.7100000   -0.046826727010
     44   S     109            21.0600000   -0.128466168750
     44   S     110             7.4950000   -0.301266272463
     44   S     111             2.7970000   -0.255630702330
     44   S     112             0.5215000    1.093793361012

     45   S     113             0.1596000    1.000000000000

     46   P     114             9.4390000    0.056979251590
     46   P     115             2.0020000    0.313207211501
     46   P     116             0.5456000    0.760376741738

     47   P     117             0.1517000    1.000000000000

     48   D     118             0.5500000    1.000000000000

     49   S     119             0.0469000    1.000000000000

     50   P     120             0.0404100    1.000000000000

     51   D     121             0.1510000    1.000000000000

 H         

     52   S     122            13.0100000    0.033498726390
     52   S     123             1.9620000    0.234800801174
     52   S     124             0.4446000    0.813682957883

     53   S     125             0.1220000    1.000000000000

     54   P     126             0.7270000    1.000000000000

     55   S     127             0.0297400    1.000000000000

     56   P     128             0.1410000    1.000000000000

 H         

     57   S     129            13.0100000    0.033498726390
     57   S     130             1.9620000    0.234800801174
     57   S     131             0.4446000    0.813682957883

     58   S     132             0.1220000    1.000000000000

     59   P     133             0.7270000    1.000000000000

     60   S     134             0.0297400    1.000000000000

     61   P     135             0.1410000    1.000000000000

 H         

     62   S     136            13.0100000    0.033498726390
     62   S     137             1.9620000    0.234800801174
     62   S     138             0.4446000    0.813682957883

     63   S     139             0.1220000    1.000000000000

     64   P     140             0.7270000    1.000000000000

     65   S     141             0.0297400    1.000000000000

     66   P     142             0.1410000    1.000000000000

 TOTAL NUMBER OF BASIS SET SHELLS             =   66
 NUMBER OF CARTESIAN GAUSSIAN BASIS FUNCTIONS =  154
 NOTE: THIS RUN WILL RESTRICT THE MO VARIATION SPACE TO SPHERICAL HARMONICS.
 THE NUMBER OF ORBITALS KEPT IN THE VARIATIONAL SPACE WILL BE PRINTED LATER.
 NUMBER OF ELECTRONS                          =   30
 CHARGE OF MOLECULE                           =    0
 SPIN MULTIPLICITY                            =    1
 NUMBER OF OCCUPIED ORBITALS (ALPHA)          =   15
 NUMBER OF OCCUPIED ORBITALS (BETA )          =   15
 TOTAL NUMBER OF ATOMS                        =   10
 THE NUCLEAR REPULSION ENERGY IS      102.2977274556

 SELECTED MURRAY-HANDY-LAMING RADIAL GRID

 LEGACY BECKE'S FUZZY CELL METHOD

 SELECTED ORIGINAL BECKE'S PARTITION FUNCTION

     LEBEDEV GRID-BASED DFT OPTIONS
     ------------------------------
     DFTTYP=B3LYP   
     NRAD  =      96     NLEB  =     302
     NRAD0 =      24     NLEB0 =     110
     SWOFF =    5.00E-03 (PURE SCF -> DFT)
     SWITCH=    3.00E-04 (COARSE -> TIGHT GRID)
     THRESH=    0.00E+00 GTHRE=    1.00E+00

 GRIMME'S EMPIRICAL DISPERSION CORRECTION= F

     $CONTRL OPTIONS
     ---------------
 SCFTYP=UHF          RUNTYP=LMOEDA       EXETYP=RUN     
 MPLEVL=       0     CITYP =NONE         CCTYP =NONE         VBTYP =NONE    
 DFTTYP=B3LYP        TDDFT =NONE    
 MULT  =       1     ICHARG=       0     NZVAR =       0     COORD =UNIQUE  
 PP    =NONE         RELWFN=NONE         LOCAL =NONE         NUMGRD=       F
 ISPHER=       1     NOSYM =       0     MAXIT =      30     UNITS =ANGS    
 PLTORB=       F     MOLPLT=       F     AIMPAC=       F     FRIEND=        
 NPRINT=       7     IREST =       0     GEOM  =INPUT   
 NORMF =       0     NORMP =       0     ITOL  =      20     ICUT  =       9
 INTTYP=BEST         GRDTYP=BEST         QMTTOL= 1.0E-06

     $SYSTEM OPTIONS
     ---------------
  REPLICATED MEMORY=   150000000 WORDS (ON EVERY NODE).
 DISTRIBUTED MEMDDI=         150 MILLION WORDS IN AGGREGATE,
 MEMDDI DISTRIBUTED OVER  16 PROCESSORS IS     9375000 WORDS/PROCESSOR.
 TOTAL MEMORY REQUESTED ON EACH PROCESSOR=   159375000 WORDS.
 TIMLIM=      525600.00 MINUTES, OR     365.0 DAYS.
 PARALL= T  BALTYP=  DLB     KDIAG=    0  COREFL= F
 MXSEQ2=     300 MXSEQ3=     150  mem10=         0  mem22=         0

 Using Gaussians for PCM contribution to MEP, params: 0.10000E+01 0.10000E-07

          ----------------
          PROPERTIES INPUT
          ----------------

     MOMENTS            FIELD           POTENTIAL          DENSITY
 IEMOM =       1   IEFLD =       0   IEPOT =       0   IEDEN =       0
 WHERE =COMASS     WHERE =NUCLEI     WHERE =NUCLEI     WHERE =NUCLEI  
 OUTPUT=BOTH       OUTPUT=BOTH       OUTPUT=BOTH       OUTPUT=BOTH    
 IEMINT=       0   IEFINT=       0                     IEDINT=       0
                                                       MORB  =       0
          EXTRAPOLATION IN EFFECT
          DIIS IN EFFECT
          DIIS or SOSCF will be reset if energy rises
 ORBITAL PRINTING OPTION: NPREO=     1   154     2     1

     -------------------------------
     INTEGRAL TRANSFORMATION OPTIONS
     -------------------------------
     NWORD  =            0
     CUTOFF = 1.0E-09     MPTRAN =       0
     DIRTRF =       F     AOINTS =DUP     

          -----------------------------
          LOCALIZATION INPUT PARAMETERS
          -----------------------------
           LOCAL=RUEDNBRG      NOUTA=       0
          PRTLOC=       F      NOUTB=       0
          MAXLOC=     250     CVGLOC=1.00E-06
           FCORE=       F     SYMLOC=       F
          MOIDON=       F     EDCOMP=       F
          DIPDCM=       F      NPROT=       0
          QADDCM=       F     DEPRNT=       F
          POLNUM=       F     ORIENT=       F
          POLDYN=       F      VMTOL=1.50E-01
          NPRDTL=       2     IBOYAL=       1

          ----------------------
          INTEGRAL INPUT OPTIONS
          ----------------------
 NOPK  =       1 NORDER=       0 SCHWRZ=       T

     ------------------------------------------
     THE POINT GROUP IS C1 , NAXIS= 0, ORDER= 1
     ------------------------------------------

 -- VARIATIONAL SPACE WILL BE RESTRICTED TO PURE SPHERICAL HARMONICS ONLY --
 AFTER EXCLUDING CONTAMINANT COMBINATIONS FROM THE CARTESIAN GAUSSIAN BASIS
 SET, THE NUMBER OF SPHERICAL HARMONICS KEPT IN THE VARIATION SPACE IS  146

     DIMENSIONS OF THE SYMMETRY SUBSPACES ARE
 A   =  146

 ..... DONE SETTING UP THE RUN .....
 CPU     0: STEP CPU TIME=     0.03 TOTAL CPU TIME=          0.0 (      0.0 MIN)
 TOTAL WALL CLOCK TIME=          0.0 SECONDS, CPU UTILIZATION IS    82.87%

          --------------
          GKSEDA OPTIONS
          --------------
          NMOL  =       2          EDATYP=GKS     
          SUPBAS=       T          RDVECM=       F          ITRTN =       T

 *******************
 GKSEDA IS BEGINNING
 *******************

 NMOL =  2

 MONOMER     ATOM   CHARGE ELECTRON MULTIPLE
 -------------------------------------------
       1        5        0       15        2
       2        5        0       15       -2
 -------------------------------------------

 SAVING MOL INFO REQUIRES    598670 WORDS OF MEMORY.

          ********************
          1 ELECTRON INTEGRALS
          ********************
 ...... END OF ONE-ELECTRON INTEGRALS ......
 CPU     0: STEP CPU TIME=     0.01 TOTAL CPU TIME=          0.0 (      0.0 MIN)
 TOTAL WALL CLOCK TIME=          0.0 SECONDS, CPU UTILIZATION IS    84.50%

          -------------
          GUESS OPTIONS
          -------------
          GUESS =HUCKEL            NORB  =       0          NORDER=       0
          MIX   =       F          PRTMO =       F          PUNMO =       F
          TOLZ  = 1.0E-08          TOLE  = 1.0E-05
          SYMDEN=       F          PURIFY=       F

 INITIAL GUESS ORBITALS GENERATED BY HUCKEL   ROUTINE.
 HUCKEL GUESS REQUIRES    180842 WORDS.

 STATISTICS FOR GENERATION OF SYMMETRY ORBITAL -Q- MATRIX
 NUMBER OF CARTESIAN ATOMIC ORBITALS=        154
 NUMBER OF SPHERICAL CONTAMINANTS DROPPED=     8
 NUMBER OF LINEARLY DEPENDENT MOS DROPPED=     0
 TOTAL NUMBER OF MOS IN VARIATION SPACE=     146

 SYMMETRIES FOR INITIAL GUESS ORBITALS FOLLOW.  ALPHA SET(S).
    15 ORBITALS ARE OCCUPIED (    4 CORE ORBITALS).
     5=A        6=A        7=A        8=A        9=A       10=A       11=A   
    12=A       13=A       14=A       15=A       16=A       17=A       18=A   
    19=A       20=A       21=A       22=A       23=A       24=A       25=A   

 SYMMETRIES FOR INITIAL GUESS ORBITALS FOLLOW.   BETA SET(S).
    15 ORBITALS ARE OCCUPIED (    4 CORE ORBITALS).
     5=A        6=A        7=A        8=A        9=A       10=A       11=A   
    12=A       13=A       14=A       15=A       16=A       17=A       18=A   
    19=A       20=A       21=A       22=A       23=A       24=A       25=A   
 ...... END OF INITIAL ORBITAL SELECTION ......
 CPU     0: STEP CPU TIME=     0.01 TOTAL CPU TIME=          0.1 (      0.0 MIN)
 TOTAL WALL CLOCK TIME=          0.1 SECONDS, CPU UTILIZATION IS    87.97%

          -------------------------
          MONOMER  1 WITH OWN BASIS
          -------------------------

     ------------------------------------------
     THE POINT GROUP IS C1 , NAXIS= 0, ORDER= 1
     ------------------------------------------

 -- VARIATIONAL SPACE WILL BE RESTRICTED TO PURE SPHERICAL HARMONICS ONLY --
 AFTER EXCLUDING CONTAMINANT COMBINATIONS FROM THE CARTESIAN GAUSSIAN BASIS
 SET, THE NUMBER OF SPHERICAL HARMONICS KEPT IN THE VARIATION SPACE IS   73

     DIMENSIONS OF THE SYMMETRY SUBSPACES ARE
 A   =   73

          ********************
          1 ELECTRON INTEGRALS
          ********************
 ...... END OF ONE-ELECTRON INTEGRALS ......
 CPU     0: STEP CPU TIME=     0.01 TOTAL CPU TIME=          0.1 (      0.0 MIN)
 TOTAL WALL CLOCK TIME=          0.1 SECONDS, CPU UTILIZATION IS    84.99%

          -------------
          GUESS OPTIONS
          -------------
          GUESS =HUCKEL            NORB  =       0          NORDER=       0
          MIX   =       F          PRTMO =       F          PUNMO =       F
          TOLZ  = 1.0E-08          TOLE  = 1.0E-05
          SYMDEN=       F          PURIFY=       F

 INITIAL GUESS ORBITALS GENERATED BY HUCKEL   ROUTINE.
 HUCKEL GUESS REQUIRES     47410 WORDS.

 STATISTICS FOR GENERATION OF SYMMETRY ORBITAL -Q- MATRIX
 NUMBER OF CARTESIAN ATOMIC ORBITALS=         77
 NUMBER OF SPHERICAL CONTAMINANTS DROPPED=     4
 NUMBER OF LINEARLY DEPENDENT MOS DROPPED=     0
 TOTAL NUMBER OF MOS IN VARIATION SPACE=      73

 SYMMETRIES FOR INITIAL GUESS ORBITALS FOLLOW.  ALPHA SET(S).
     8 ORBITALS ARE OCCUPIED (    2 CORE ORBITALS).
     3=A        4=A        5=A        6=A        7=A        8=A        9=A   
    10=A       11=A       12=A       13=A       14=A       15=A       16=A   
    17=A       18=A   

 SYMMETRIES FOR INITIAL GUESS ORBITALS FOLLOW.   BETA SET(S).
     7 ORBITALS ARE OCCUPIED (    2 CORE ORBITALS).
     3=A        4=A        5=A        6=A        7=A        8=A        9=A   
    10=A       11=A       12=A       13=A       14=A       15=A       16=A   
    17=A   
 ...... END OF INITIAL ORBITAL SELECTION ......
 CPU     0: STEP CPU TIME=     0.00 TOTAL CPU TIME=          0.1 (      0.0 MIN)
 TOTAL WALL CLOCK TIME=          0.1 SECONDS, CPU UTILIZATION IS    85.59%

                    ----------------------
                    AO INTEGRAL TECHNOLOGY
                    ----------------------
     S,P,L SHELL ROTATED AXIS INTEGRALS, REPROGRAMMED BY
        KAZUYA ISHIMURA (IMS) AND JOSE SIERRA (SYNSTAR).
     S,P,D,L SHELL ROTATED AXIS INTEGRALS PROGRAMMED BY
        KAZUYA ISHIMURA (INSTITUTE FOR MOLECULAR SCIENCE).
     S,P,D,F,G SHELL TO TOTAL QUARTET ANGULAR MOMENTUM SUM 5,
        ERIC PROGRAM BY GRAHAM FLETCHER (ELORET AND NASA ADVANCED
        SUPERCOMPUTING DIVISION, AMES RESEARCH CENTER).
     S,P,D,F,G,L SHELL GENERAL RYS QUADRATURE PROGRAMMED BY
        MICHEL DUPUIS (PACIFIC NORTHWEST NATIONAL LABORATORY).

          --------------------
          2 ELECTRON INTEGRALS
          --------------------

 THE -PK- OPTION IS OFF, THE INTEGRALS ARE NOT IN SUPERMATRIX FORM.
 STORING   15000 INTEGRALS/RECORD ON DISK, USING 12 BYTES/INTEGRAL.
 TWO ELECTRON INTEGRAL EVALUATION REQUIRES   90957 WORDS OF MEMORY.
 SCHWARZ INEQUALITY OVERHEAD:      3003 INTEGRALS, T=        0.00
 II,JST,KST,LST =  1  1  1  1 NREC =         1 INTLOC =    1
 II,JST,KST,LST =  2  1  1  1 NREC =         1 INTLOC =    1
 II,JST,KST,LST =  3  1  1  1 NREC =         1 INTLOC =    1
 II,JST,KST,LST =  4  1  1  1 NREC =         1 INTLOC =    1
 II,JST,KST,LST =  5  1  1  1 NREC =         1 INTLOC =    1
 II,JST,KST,LST =  6  1  1  1 NREC =         1 INTLOC =    1
 II,JST,KST,LST =  7  1  1  1 NREC =         1 INTLOC =    4
 II,JST,KST,LST =  8  1  1  1 NREC =         1 INTLOC =   49
 II,JST,KST,LST =  9  1  1  1 NREC =         1 INTLOC =  589
 II,JST,KST,LST = 10  1  1  1 NREC =         1 INTLOC =  589
 II,JST,KST,LST = 11  1  1  1 NREC =         1 INTLOC =  589
 II,JST,KST,LST = 12  1  1  1 NREC =         1 INTLOC = 1015
 II,JST,KST,LST = 13  1  1  1 NREC =         1 INTLOC = 1432
 II,JST,KST,LST = 14  1  1  1 NREC =         1 INTLOC = 1432
 II,JST,KST,LST = 15  1  1  1 NREC =         1 INTLOC = 5205
 II,JST,KST,LST = 16  1  1  1 NREC =         1 INTLOC = 7119
 II,JST,KST,LST = 17  1  1  1 NREC =         1 INTLOC = 7119
 II,JST,KST,LST = 18  1  1  1 NREC =         1 INTLOC = 8193
 II,JST,KST,LST = 19  1  1  1 NREC =         2 INTLOC =  360
 II,JST,KST,LST = 20  1  1  1 NREC =         2 INTLOC = 1440
 II,JST,KST,LST = 21  1  1  1 NREC =         2 INTLOC = 4942
 II,JST,KST,LST = 22  1  1  1 NREC =         3 INTLOC = 9165
 II,JST,KST,LST = 23  1  1  1 NREC =         4 INTLOC = 9605
 II,JST,KST,LST = 24  1  1  1 NREC =         6 INTLOC = 6263
 II,JST,KST,LST = 25  1  1  1 NREC =         7 INTLOC =  147
 II,JST,KST,LST = 26  1  1  1 NREC =         8 INTLOC = 4593
 II,JST,KST,LST = 27  1  1  1 NREC =        10 INTLOC =12302
 II,JST,KST,LST = 28  1  1  1 NREC =        12 INTLOC = 9522
 II,JST,KST,LST = 29  1  1  1 NREC =        16 INTLOC =10089
 II,JST,KST,LST = 30  1  1  1 NREC =        17 INTLOC =12845
 II,JST,KST,LST = 31  1  1  1 NREC =        18 INTLOC = 4952
 II,JST,KST,LST = 32  1  1  1 NREC =        19 INTLOC = 6604
 II,JST,KST,LST = 33  1  1  1 NREC =        21 INTLOC = 3614
 SCHWARZ INEQUALITY TEST SKIPPED           0 INTEGRAL BLOCKS.
 TOTAL NUMBER OF NONZERO TWO-ELECTRON INTEGRALS =             3900273
        267 INTEGRAL RECORDS WERE STORED ON DISK FILE  8.
  ...... END OF TWO-ELECTRON INTEGRALS .....
 CPU     0: STEP CPU TIME=     0.03 TOTAL CPU TIME=          0.1 (      0.0 MIN)
 TOTAL WALL CLOCK TIME=          0.1 SECONDS, CPU UTILIZATION IS    86.00%

          ---------------------------
              U-B3LYP SCF CALCULATION
          ---------------------------

     NUCLEAR ENERGY =        27.8884243164
     MAXIT = 30     NPUNCH=  2     MULT=  2
     EXTRAP=T  DAMP=F  SHIFT=F  RSTRCT=F  DIIS=T  SOSCF=T
         DENSITY MATRIX CONVERGENCE THRESHOLD=  1.00E-05
     COARSE -> FINE DFT GRID SWITCH THRESHOLD=  3.00E-04 (SWITCH IN $DFT)
                   HF -> DFT SWITCH THRESHOLD=  5.00E-03 (SWOFF IN $DFT)
     SOSCF WILL OPTIMIZE     520 ALPHA AND     462 BETA ROTATION ANGLES.
     SOGTOL= 2.500E-01
     MEMORY REQUIRED FOR UHF/ROHF ITERS=    298732 WORDS.

     EXCHANGE FUNCTIONAL   =B88&HFX   
     CORRELATION FUNCTIONAL=LYP88&VWN5
     DFT THRESHOLD         =.690E-08
     GRID CHANGE THRESHOLD =.300E-03
 FOR AN EULER-MACLAURIN QUADRATURE USING  96 RADIAL POINTS:
 SMALLEST GAUSSIAN PRIMITIVE EXPONENT=        0.0297400000 OF TYPE -S-
 ON ATOM NUMBER   3 HAS RADIAL NORMALIZATION=  1.000000
  LARGEST GAUSSIAN PRIMITIVE EXPONENT=     6665.0000000000 OF TYPE -S-
 ON ATOM NUMBER   1 HAS RADIAL NORMALIZATION=  1.000000
 DFT IS SWITCHED OFF, PERFORMING PURE SCF UNTIL SWOFF THRESHOLD IS REACHED.

 ITER EX      TOTAL ENERGY        E CHANGE  DENSITY CHANGE    DIIS ERROR
          * * *   INITIATING DIIS PROCEDURE   * * *
   1  0      -77.1747291372   -77.1747291372   0.501074658   0.357137099
   2  1      -77.3688198221    -0.1940906848   0.155279290   0.054207631
   3  2      -77.3848692494    -0.0160494273   0.031230108   0.025959740
   4  3      -77.3892712843    -0.0044020349   0.022050181   0.011220081
   5  4      -77.3906562583    -0.0013849740   0.012881600   0.008531091
   6  5      -77.3913014043    -0.0006451460   0.024617844   0.008518790
   7  6      -77.3923718838    -0.0010704795   0.065338815   0.008250946
   8  7      -77.3947561249    -0.0023842411   0.106485513   0.006299514
   9  8      -77.3962357555    -0.0014796306   0.061614806   0.001790978
  10  9      -77.3958591380     0.0003766176   0.040204538   0.003841684
  11 10      -77.3962921288    -0.0004329908   0.005049314   0.000591221
  12 11      -77.3963017281    -0.0000095993   0.001701867   0.000145289
 CONVERGED TO SWOFF, SO DFT CALCULATION IS NOW SWITCHED ON.
          * * *   INITIATING DIIS PROCEDURE   * * *
  13 12      -77.8302412632    -0.4339395351   0.394489907   0.062365168
  14 13      -77.8468117153    -0.0165704521   0.062483063   0.016700261
  15 14      -77.8494790105    -0.0026672953   0.024712826   0.012028274
  16 15      -77.8509320300    -0.0014530195   0.050409073   0.007354044
  17 16      -77.8519061929    -0.0009741629   0.008979485   0.003278874
  18 17      -77.8519836690    -0.0000774761   0.005831623   0.001429953
  19 18      -77.8520031226    -0.0000194535   0.001982988   0.000279173
         SWDIIS THRESHOLD HAS BEEN REACHED: SWITCHING DIIS OFF.
          ---------------START SECOND ORDER SCF---------------
  20 19      -77.8520042493    -0.0000011268   0.000136808   0.000022554
  21 20      -77.8520042613    -0.0000000120   0.000154593   0.000023272
  22 21      -77.8520042621    -0.0000000008   0.000065130   0.000020701
  23 22      -77.8520042661    -0.0000000040   0.000008680   0.000002321
  24 23      -77.8520042662    -0.0000000001   0.000012552   0.000001893

          ----------------
          ENERGY CONVERGED
          ----------------
     TIME TO FORM FOCK OPERATORS=       1.2 SECONDS (       0.1 SEC/ITER)
     TIME TO SOLVE SCF EQUATIONS=       0.1 SECONDS (       0.0 SEC/ITER)

 FINAL U-B3LYP ENERGY IS      -77.8520042662 AFTER  24 ITERATIONS
 DFT EXCHANGE + CORRELATION ENERGY =        -9.5253582283
 TOTAL ELECTRON NUMBER             =        14.9999811675

          --------------------
          SPIN SZ   =    0.500
          S-SQUARED =    0.764
          --------------------

  ----- ALPHA SET ----- 

          ------------
          EIGENVECTORS
          ------------

                      1          2          3          4          5
                  -10.2289   -10.2017    -0.7673    -0.5780    -0.4644
                     A          A          A          A          A   
    1  C  1  S    0.012297   1.009650  -0.019704   0.011349  -0.002203
    2  C  1  S   -0.001521   0.022164   0.316309  -0.227065   0.000409
    3  C  1  S    0.040368  -0.073394   0.095508  -0.325116  -0.034924
    4  C  1  X    0.000001  -0.000018   0.000013   0.002346   0.011786
    5  C  1  Y   -0.000024  -0.000003   0.007991   0.031241   0.339963
    6  C  1  Z   -0.001011  -0.000342   0.111035   0.207531  -0.210669
    7  C  1  X   -0.000072   0.000027   0.001128   0.000848   0.000037
    8  C  1  Y   -0.001379  -0.000307   0.023606   0.027582  -0.015175
    9  C  1  Z    0.038696  -0.009021  -0.029499  -0.243350   0.040451
   10  C  1 XX    0.000219  -0.001625  -0.006293   0.001479  -0.001739
   11  C  1 YY    0.000858   0.000823  -0.007604  -0.011281   0.008604
   12  C  1 ZZ   -0.001076   0.000802   0.013898   0.009802  -0.006865
   13  C  1 XY    0.000024   0.000096  -0.000043  -0.000522   0.000269
   14  C  1 XZ    0.000021   0.000010  -0.000027   0.000164  -0.000066
   15  C  1 YZ    0.000476   0.000056   0.000200   0.002335  -0.005966
   16  C  1  S    0.015332  -0.033941   0.016759   0.138808  -0.061261
   17  C  1  X    0.000040   0.000044  -0.000141   0.000394  -0.001912
   18  C  1  Y    0.000758   0.000812  -0.003787   0.008998  -0.058334
   19  C  1  Z    0.006234  -0.003683  -0.001888   0.011868  -0.009229
   20  C  1 XX   -0.002130   0.004873   0.006323  -0.007014  -0.006430
   21  C  1 YY   -0.004458   0.001537  -0.007948   0.105895  -0.045241
   22  C  1 ZZ    0.006588  -0.006410   0.001626  -0.098881   0.051671
   23  C  1 XY   -0.000101  -0.000139  -0.000301   0.004855  -0.000715
   24  C  1 XZ   -0.000143  -0.000068   0.000955   0.000480   0.003597
   25  C  1 YZ   -0.003142  -0.001101   0.024626   0.019840   0.104500
   26  C  2  S    1.009990  -0.013884  -0.017184  -0.006473  -0.000323
   27  C  2  S    0.022741  -0.001381   0.307238   0.268666  -0.070324
   28  C  2  S   -0.090015   0.024661   0.253308   0.494351  -0.242915
   29  C  2  X    0.000062   0.000004   0.001552   0.005854   0.010894
   30  C  2  Y    0.000900   0.000105   0.024452   0.097494   0.255814
   31  C  2  Z   -0.000224   0.000920  -0.128569   0.119018   0.164871
   32  C  2  X   -0.000199  -0.000056  -0.002804  -0.003887   0.000027
   33  C  2  Y   -0.003190  -0.001124  -0.057482  -0.093563   0.008210
   34  C  2  Z    0.030779  -0.016936  -0.091389  -0.221264   0.063626
   35  C  2 XX   -0.000855   0.000675  -0.011440  -0.001401  -0.000466
   36  C  2 YY    0.000515   0.000641  -0.003945   0.009813   0.005771
   37  C  2 ZZ    0.000340  -0.001317   0.015386  -0.008411  -0.005306
   38  C  2 XY    0.000077   0.000002   0.000239   0.000562   0.000497
   39  C  2 XZ    0.000052   0.000004  -0.000241   0.000007  -0.000201
   40  C  2 YZ    0.000888   0.000042  -0.006176  -0.001624  -0.009640
   41  C  2  S   -0.029113   0.019792  -0.019204  -0.118892   0.022866
   42  C  2  X   -0.000072  -0.000071  -0.000093  -0.001379   0.000523
   43  C  2  Y   -0.001405  -0.001334  -0.000285  -0.026858   0.017943
   44  C  2  Z    0.004254  -0.005764   0.006689   0.004981  -0.013551
   45  C  2 XX    0.005992  -0.001055  -0.006825   0.006163   0.001126
   46  C  2 YY    0.004307  -0.001756  -0.017728  -0.059780  -0.008354
   47  C  2 ZZ   -0.010299   0.002811   0.024553   0.053617   0.007228
   48  C  2 XY   -0.000090  -0.000033  -0.001035  -0.003574  -0.001098
   49  C  2 XZ   -0.000220  -0.000063   0.000293  -0.001206   0.000230
   50  C  2 YZ   -0.004262  -0.001175   0.008586  -0.021956   0.013257
   51  H  3  S   -0.000661  -0.000101   0.124200   0.258653   0.195428
   52  H  3  S    0.021375   0.007238   0.065106   0.272844   0.109520
   53  H  3  X    0.000091  -0.000004  -0.000670  -0.000965  -0.000449
   54  H  3  Y    0.001716  -0.000008  -0.012755  -0.016797  -0.005931
   55  H  3  Z    0.000735   0.000182  -0.011298  -0.009968  -0.005276
   56  H  3  S    0.001291   0.001931   0.003533   0.025880   0.010628
   57  H  3  X   -0.000418  -0.000124  -0.000265  -0.002852  -0.000268
   58  H  3  Y   -0.007697  -0.002232  -0.007772  -0.042369  -0.012019
   59  H  3  Z   -0.002012  -0.000912  -0.017501  -0.029634  -0.010895
   60  H  4  S   -0.000341  -0.000851   0.116314  -0.229437  -0.139422
   61  H  4  S    0.017729   0.021851  -0.011149  -0.218707  -0.195469
   62  H  4  X   -0.000009  -0.000060   0.000538  -0.000589   0.000012
   63  H  4  Y   -0.000207  -0.001545   0.014322  -0.016886   0.000704
   64  H  4  Z   -0.000616  -0.001022   0.012563  -0.005448  -0.009970
   65  H  4  S    0.001772   0.001996  -0.000034  -0.012839  -0.041409
   66  H  4  X    0.000180   0.000251  -0.000268  -0.000867  -0.001592
   67  H  4  Y    0.004822   0.006770  -0.009271  -0.020672  -0.048884
   68  H  4  Z    0.002447   0.003021   0.008614  -0.034417   0.011599
   69  H  5  S   -0.000190  -0.000911   0.126454  -0.203153   0.340524
   70  H  5  S    0.009329   0.018946   0.015306  -0.225879   0.434401
   71  H  5  X   -0.000001   0.000044  -0.000431   0.000492  -0.000225
   72  H  5  Y   -0.000080   0.001516  -0.014515   0.016644  -0.010213
   73  H  5  Z   -0.000418  -0.000940   0.011300  -0.004911   0.005033
   74  H  5  S    0.001713   0.001144   0.002315  -0.013755   0.045143
   75  H  5  X   -0.000066  -0.000178  -0.000133  -0.000049  -0.002254
   76  H  5  Y   -0.002369  -0.005999   0.000392   0.020312  -0.072317
   77  H  5  Z    0.001977   0.002943  -0.001928  -0.053836   0.040867

                      6          7          8          9         10
                   -0.4139    -0.2853    -0.2731    -0.0194    -0.0019
                     A          A          A          A          A   
    1  C  1  S    0.000027   0.000003   0.000579  -0.000068  -0.003000
    2  C  1  S   -0.036583   0.004206   0.050344   0.000142   0.084473
    3  C  1  S   -0.169638   0.003502   0.023107   0.000233   0.344415
    4  C  1  X   -0.007833   0.391228  -0.027452   0.403169   0.000860
    5  C  1  Y   -0.256035  -0.020480  -0.134075  -0.013137   0.029623
    6  C  1  Z   -0.319104   0.007495   0.112901  -0.001777  -0.096196
    7  C  1  X    0.003027   0.215582  -0.011884   0.338471   0.000636
    8  C  1  Y    0.060412  -0.005105   0.032435  -0.012011   0.042236
    9  C  1  Z   -0.091070  -0.001711  -0.022034  -0.001344  -0.283786
   10  C  1 XX   -0.001144  -0.000016   0.000518  -0.000040   0.000929
   11  C  1 YY    0.010480  -0.000071  -0.000744  -0.000035  -0.002769
   12  C  1 ZZ   -0.009337   0.000087   0.000226   0.000075   0.001840
   13  C  1 XY    0.000606   0.000645   0.000054   0.000060  -0.000173
   14  C  1 XZ    0.000775   0.021732   0.000209  -0.030107   0.000085
   15  C  1 YZ    0.013735   0.001200   0.040559   0.001525   0.001418
   16  C  1  S   -0.038281   0.011305   0.158601   0.001543   1.297889
   17  C  1  X    0.001900   0.028694  -0.001229   0.565538  -0.002325
   18  C  1  Y    0.051681  -0.000083   0.019994  -0.018106   0.036969
   19  C  1  Z   -0.014675   0.002789   0.040401  -0.000627  -0.298878
   20  C  1 XX   -0.000033  -0.000085  -0.005622  -0.000059  -0.039424
   21  C  1 YY   -0.043787   0.001899   0.029455   0.000170   0.024488
   22  C  1 ZZ    0.043820  -0.001814  -0.023833  -0.000111   0.014937
   23  C  1 XY   -0.001580   0.004588   0.001000  -0.003262   0.002423
   24  C  1 XZ   -0.001598   0.003645  -0.001402  -0.042032   0.001542
   25  C  1 YZ   -0.052617  -0.001750  -0.035150   0.000406   0.027154
   26  C  2  S   -0.000866   0.000014  -0.000754  -0.000076  -0.002545
   27  C  2  S    0.031788  -0.010517  -0.151039   0.001476   0.055978
   28  C  2  S   -0.053963  -0.020443  -0.311356   0.004177   0.366287
   29  C  2  X    0.005118   0.442646  -0.007106  -0.411283   0.002332
   30  C  2  Y    0.033880   0.007793   0.473939   0.019145   0.043646
   31  C  2  Z    0.374044  -0.018085  -0.256001   0.002583   0.082549
   32  C  2  X   -0.002717   0.255908  -0.006743  -0.348389   0.005467
   33  C  2  Y   -0.066237   0.001420   0.242207   0.017896   0.098425
   34  C  2  Z    0.045033  -0.014594  -0.222754   0.001546  -0.007462
   35  C  2 XX   -0.001569  -0.000104  -0.004763  -0.000102  -0.001707
   36  C  2 YY    0.011008  -0.000147   0.000018   0.000003  -0.004867
   37  C  2 ZZ   -0.009439   0.000252   0.004745   0.000099   0.006573
   38  C  2 XY    0.000737  -0.000512   0.000620  -0.000075  -0.000153
   39  C  2 XZ    0.000800  -0.020375   0.001946  -0.032154  -0.000100
   40  C  2 YZ    0.017766   0.001805   0.020339   0.000876  -0.003619
   41  C  2  S   -0.014597  -0.017175  -0.262382   0.003783   0.871888
   42  C  2  X   -0.001711   0.031304  -0.001203  -0.517178   0.011411
   43  C  2  Y   -0.036015  -0.000222   0.023885   0.020797   0.190264
   44  C  2  Z   -0.015201   0.000862   0.007415   0.001927   0.147179
   45  C  2 XX   -0.004106   0.000527   0.006974   0.000525  -0.039444
   46  C  2 YY   -0.036791  -0.001473  -0.023051  -0.000454  -0.012788
   47  C  2 ZZ    0.040897   0.000946   0.016077  -0.000071   0.052232
   48  C  2 XY   -0.002332  -0.001412  -0.001245   0.008333   0.001846
   49  C  2 XZ   -0.000676  -0.007188  -0.000127  -0.037736   0.001763
   50  C  2 YZ   -0.017327  -0.000199  -0.012062   0.000415   0.033178
   51  H  3  S    0.232225   0.010988   0.195741  -0.003859   0.005239
   52  H  3  S    0.277430   0.014469   0.250062  -0.004182  -0.357889
   53  H  3  X   -0.000433   0.015658  -0.000829  -0.020927  -0.000554
   54  H  3  Y   -0.009254  -0.000399   0.006830   0.000950  -0.010666
   55  H  3  Z    0.001077  -0.001094  -0.015922   0.000110  -0.001546
   56  H  3  S    0.036806   0.001169   0.027581  -0.002769  -0.897046
   57  H  3  X   -0.002020   0.015285  -0.002472  -0.053557   0.001785
   58  H  3  Y   -0.038639  -0.001845  -0.017879   0.001497   0.031612
   59  H  3  Z   -0.036281  -0.002130  -0.029199  -0.000016   0.032874
   60  H  4  S    0.325360   0.006480   0.146017   0.000835   0.006995
   61  H  4  S    0.392234   0.008260   0.193442   0.002403  -0.404936
   62  H  4  X    0.000440   0.014385  -0.000877   0.021807   0.000343
   63  H  4  Y    0.009587  -0.000574  -0.000875  -0.000798   0.009635
   64  H  4  Z    0.003260   0.000285   0.005132  -0.000171   0.002100
   65  H  4  S    0.036112   0.001711   0.039867   0.006014  -0.640197
   66  H  4  X    0.002280   0.015694   0.000253   0.045455  -0.002197
   67  H  4  Y    0.055097   0.001270   0.035435  -0.001444  -0.063615
   68  H  4  Z    0.052659  -0.000003   0.003318  -0.000880  -0.017121
   69  H  5  S   -0.074260  -0.011651  -0.210349  -0.002480   0.003891
   70  H  5  S   -0.185490  -0.018743  -0.338285  -0.003641  -0.418723
   71  H  5  X   -0.000108   0.014332  -0.000893   0.022644  -0.000387
   72  H  5  Y   -0.003110  -0.000421  -0.000056  -0.000764  -0.012223
   73  H  5  Z   -0.010911  -0.000015   0.000277   0.000002   0.003424
   74  H  5  S   -0.043448  -0.001584  -0.041728  -0.003822  -1.138059
   75  H  5  X    0.001252   0.012833   0.000285   0.052790   0.001163
   76  H  5  Y    0.051230   0.001889   0.043238  -0.002150   0.036174
   77  H  5  Z   -0.005945  -0.001751  -0.023154   0.000611  -0.024431

                     11         12         13         14         15
                    0.0149     0.0251     0.0627     0.0711     0.0791
                     A          A          A          A          A   
    1  C  1  S   -0.001240   0.002400   0.000663   0.007655   0.002861
    2  C  1  S    0.067555  -0.017201  -0.000892  -0.012349   0.043677
    3  C  1  S    0.183176  -0.128956  -0.034921  -0.390344   0.154208
    4  C  1  X   -0.002282  -0.003138  -0.172308   0.010876  -0.000397
    5  C  1  Y   -0.067673  -0.118424   0.007415   0.036831   0.011834
    6  C  1  Z   -0.036473   0.005143   0.000665   0.014078   0.054591
    7  C  1  X   -0.006387  -0.010622  -0.199669   0.015991   0.001350
    8  C  1  Y   -0.171831  -0.370986   0.010428   0.101823   0.011131
    9  C  1  Z   -0.274501   0.106056   0.000636   0.034571  -0.045559
   10  C  1 XX    0.002819  -0.003176  -0.000260  -0.007383  -0.006844
   11  C  1 YY    0.004865  -0.001752   0.000054   0.001113  -0.010906
   12  C  1 ZZ   -0.007684   0.004928   0.000206   0.006270   0.017750
   13  C  1 XY    0.000126   0.000036   0.000852   0.000305  -0.000138
   14  C  1 XZ   -0.000329  -0.000132  -0.006126  -0.000201   0.000138
   15  C  1 YZ   -0.004802  -0.003836  -0.000355  -0.010550   0.003088
   16  C  1  S    0.424426  -1.758346  -0.733558 -10.862800   1.489615
   17  C  1  X   -0.003382  -0.065549   0.628842  -0.028831  -0.019796
   18  C  1  Y   -0.203914  -1.940898   0.033639   0.437949  -0.488558
   19  C  1  Z   -0.536445  -0.376402  -0.306449  -4.831721  -1.576143
   20  C  1 XX   -0.010766   0.016587   0.003231   0.080931   0.022565
   21  C  1 YY    0.022113  -0.051668  -0.007958  -0.154455   0.016693
   22  C  1 ZZ   -0.011347   0.035081   0.004726   0.073524  -0.039258
   23  C  1 XY    0.002101  -0.002462  -0.024283  -0.008426  -0.000780
   24  C  1 XZ   -0.001421   0.003735  -0.041188   0.003662   0.004637
   25  C  1 YZ   -0.043077   0.099904   0.000125   0.003727   0.113410
   26  C  2  S   -0.001276  -0.000768  -0.000476  -0.005540   0.005530
   27  C  2  S   -0.073128   0.048014   0.002402   0.040797   0.030834
   28  C  2  S   -0.229758   0.245173   0.031061   0.429975   0.051360
   29  C  2  X   -0.005227  -0.001679  -0.128024   0.000939   0.002104
   30  C  2  Y   -0.084926  -0.045989  -0.001797  -0.142484   0.060915
   31  C  2  Z   -0.027999   0.023453   0.000791   0.004855  -0.075646
   32  C  2  X   -0.010408   0.004807  -0.144864   0.015954  -0.008517
   33  C  2  Y   -0.159219   0.094144   0.018684   0.116465  -0.141978
   34  C  2  Z   -0.250477   0.150737  -0.000289   0.045539  -0.063489
   35  C  2 XX   -0.003385   0.001469  -0.000385   0.001442  -0.010020
   36  C  2 YY   -0.001754   0.002166   0.000478  -0.000571  -0.013481
   37  C  2 ZZ    0.005140  -0.003634  -0.000093  -0.000870   0.023500
   38  C  2 XY    0.000184  -0.000015  -0.003907   0.000089  -0.000204
   39  C  2 XZ    0.000311   0.000183   0.013406  -0.000629  -0.000239
   40  C  2 YZ    0.008237   0.007578  -0.000428   0.001938  -0.006735
   41  C  2  S   -0.486862   2.297553   0.739948  11.165823  -0.285058
   42  C  2  X   -0.033143   0.040555   0.592451  -0.029330   0.005714
   43  C  2  Y   -0.553567   1.025999  -0.042278   0.314992  -0.061418
   44  C  2  Z   -0.626994  -0.234493  -0.287399  -4.197853   1.875216
   45  C  2 XX    0.007592  -0.040988  -0.001453  -0.076242   0.063099
   46  C  2 YY   -0.063101   0.033167   0.001103   0.085068  -0.026879
   47  C  2 ZZ    0.055509   0.007821   0.000350  -0.008826  -0.036220
   48  C  2 XY   -0.004533   0.004007   0.039775   0.006985  -0.004163
   49  C  2 XZ   -0.003510   0.004267   0.015380   0.002363   0.004288
   50  C  2 YZ   -0.072388   0.085261   0.002165   0.060201   0.082851
   51  H  3  S    0.016482   0.015116  -0.000529  -0.022825  -0.017803
   52  H  3  S    0.671054  -0.550352  -0.052790  -0.853926   0.214867
   53  H  3  X    0.000532  -0.000095   0.005788   0.000189  -0.000421
   54  H  3  Y    0.010295   0.000146   0.000284   0.009776  -0.008468
   55  H  3  Z    0.008204  -0.000476   0.000104   0.005313   0.007018
   56  H  3  S    2.555476  -1.436764   0.218020   3.495234  -0.150917
   57  H  3  X   -0.004584   0.007773  -0.038595   0.011084  -0.004913
   58  H  3  Y   -0.082913   0.133565   0.011908   0.137042  -0.084749
   59  H  3  Z   -0.021213   0.003822   0.010626   0.141128  -0.096763
   60  H  4  S   -0.009722   0.012717  -0.000915  -0.023008  -0.023448
   61  H  4  S   -0.447408  -0.451306   0.043280   0.593223  -0.343891
   62  H  4  X    0.000347   0.000181   0.003539  -0.000266   0.000097
   63  H  4  Y    0.007581   0.002763   0.000028  -0.000154   0.003618
   64  H  4  Z    0.007191   0.002828  -0.000472  -0.010560  -0.011330
   65  H  4  S   -2.042362  -3.109311   0.019184   0.443818  -1.131567
   66  H  4  X   -0.001652  -0.002298  -0.070081   0.006165  -0.001086
   67  H  4  Y   -0.060072  -0.052228   0.004331   0.032136  -0.011595
   68  H  4  Z   -0.008165  -0.053164   0.009190   0.146182   0.028959
   69  H  5  S    0.002801  -0.002504   0.001250   0.025683  -0.038257
   70  H  5  S   -0.158920   0.861167   0.029075   0.406877   0.095236
   71  H  5  X   -0.000009   0.000101   0.004201  -0.000252  -0.000204
   72  H  5  Y   -0.002465   0.004239  -0.000187  -0.001305  -0.006263
   73  H  5  Z    0.003242  -0.007300  -0.000208  -0.002361  -0.014293
   74  H  5  S   -0.486369   3.804995  -0.258788  -4.357833   0.579278
   75  H  5  X    0.001791  -0.001773  -0.031224   0.004090  -0.002806
   76  H  5  Y    0.063495  -0.092151  -0.000790  -0.002415  -0.090298
   77  H  5  Z    0.051680   0.068549   0.008814   0.101219   0.038284

                     16         17         18         19         20
                    0.1117     0.1127     0.1167     0.1280     0.1460
                     A          A          A          A          A   
    1  C  1  S    0.005706  -0.000996  -0.038844  -0.014786  -0.015057
    2  C  1  S   -0.060420   0.001822  -0.204626  -0.019106  -0.120472
    3  C  1  S   -1.021592   0.080010   0.319036   0.524820   0.534182
    4  C  1  X    0.020555   0.235832  -0.004683   0.005119   0.003469
    5  C  1  Y    0.113236  -0.015363  -0.084253   0.237846   0.038058
    6  C  1  Z    0.003367   0.000124   0.121550   0.001280   0.130685
    7  C  1  X   -0.002256   0.187808   0.004419  -0.035427   0.001801
    8  C  1  Y   -0.424111   0.020788   0.295840  -0.928655  -0.169169
    9  C  1  Z   -1.251634   0.065163  -1.553200  -0.373388   1.557769
   10  C  1 XX    0.000967   0.000334   0.019968   0.016415  -0.039411
   11  C  1 YY   -0.000200  -0.000147   0.003810  -0.007964   0.048634
   12  C  1 ZZ   -0.000767  -0.000187  -0.023778  -0.008451  -0.009223
   13  C  1 XY    0.000204   0.001258  -0.000578  -0.001411   0.003494
   14  C  1 XZ    0.000632  -0.006998  -0.000306   0.000385  -0.000856
   15  C  1 YZ    0.024272  -0.001191  -0.007330   0.009096  -0.016685
   16  C  1  S   -5.735236   0.456522   5.116544   5.276686   0.165413
   17  C  1  X   -0.157216  -2.231139   0.078365  -0.197417  -0.086000
   18  C  1  Y   -0.298635   0.101166   1.834405  -6.064016  -2.436297
   19  C  1  Z   -3.640903   0.232587  -1.919803   1.703810   0.568034
   20  C  1 XX    0.046616  -0.007261  -0.160921  -0.036637  -0.097836
   21  C  1 YY    0.185121  -0.004420   0.341558   0.196336  -0.662331
   22  C  1 ZZ   -0.231737   0.011681  -0.180638  -0.159700   0.760167
   23  C  1 XY    0.005381  -0.034293   0.019060   0.012232  -0.022018
   24  C  1 XZ   -0.006156  -0.056873   0.002970   0.011523   0.015146
   25  C  1 YZ   -0.060735   0.006229  -0.013200   0.334394   0.319879
   26  C  2  S    0.008554  -0.001202  -0.036094  -0.026169   0.024733
   27  C  2  S    0.112443  -0.008788  -0.113108  -0.098982   0.013270
   28  C  2  S    0.494331  -0.008916   1.285773   0.772880  -2.201610
   29  C  2  X   -0.006200  -0.241547   0.002003   0.001419  -0.006706
   30  C  2  Y    0.181392  -0.001262  -0.007974   0.001251  -0.093178
   31  C  2  Z    0.059591  -0.003756  -0.085219  -0.008885  -0.067810
   32  C  2  X   -0.038191  -0.226471   0.009737   0.023858  -0.027693
   33  C  2  Y   -0.365343   0.045058   0.135993   0.401091  -0.514128
   34  C  2  Z   -1.384317   0.088675  -0.890983   0.133276   1.094842
   35  C  2 XX   -0.004788   0.000012   0.005467   0.013461  -0.011879
   36  C  2 YY    0.006056   0.000069   0.002428  -0.007749   0.017796
   37  C  2 ZZ   -0.001268  -0.000081  -0.007895  -0.005712  -0.005917
   38  C  2 XY    0.000380  -0.005974   0.000101  -0.001139   0.001129
   39  C  2 XZ   -0.000856  -0.004122   0.000055  -0.000535  -0.000228
   40  C  2 YZ   -0.016140   0.000965   0.004133  -0.017114   0.001611
   41  C  2  S    4.133737  -0.226353   2.597723  -0.908749  -1.961079
   42  C  2  X   -0.001452   2.240276  -0.052084   0.144961   0.032540
   43  C  2  Y   -2.808195   0.112957  -0.747482   3.516769   0.693669
   44  C  2  Z   -4.223497   0.285551  -0.120729   2.257779   1.082045
   45  C  2 XX    0.007527   0.002644  -0.128140  -0.070812  -0.023498
   46  C  2 YY   -0.309353   0.015789  -0.128967   0.041032   0.196427
   47  C  2 ZZ    0.301826  -0.018433   0.257108   0.029780  -0.172928
   48  C  2 XY   -0.015970   0.063168   0.000939   0.005346   0.008680
   49  C  2 XZ   -0.018670  -0.084256   0.006203   0.008174   0.010496
   50  C  2 YZ   -0.247653   0.021187   0.095927   0.145285   0.186707
   51  H  3  S   -0.021490  -0.001285   0.010537  -0.087367   0.103440
   52  H  3  S    2.264301  -0.185901  -0.546619  -1.789227   0.614412
   53  H  3  X   -0.001049  -0.000545   0.000602   0.000658  -0.000425
   54  H  3  Y   -0.019751   0.001694   0.011525   0.011020  -0.008299
   55  H  3  Z   -0.012087   0.001079  -0.001792   0.015155  -0.005288
   56  H  3  S    6.192802  -0.438940   0.133817  -3.860532  -0.765516
   57  H  3  X   -0.038603  -0.117127   0.014232   0.017924   0.004705
   58  H  3  Y   -0.614732   0.052133   0.248934   0.282274   0.214865
   59  H  3  Z   -0.388084   0.029808   0.068608   0.161180  -0.140925
   60  H  4  S    0.028677  -0.001772  -0.002787  -0.057270   0.098435
   61  H  4  S   -1.079935   0.039555  -1.681348  -3.127385   0.726268
   62  H  4  X   -0.000483  -0.000276  -0.000370  -0.000847  -0.000731
   63  H  4  Y   -0.010954   0.000572  -0.009529  -0.022782  -0.023967
   64  H  4  Z   -0.009104   0.000481  -0.000985  -0.011083   0.005852
   65  H  4  S   -3.910214   0.230572  -0.770369  -5.119772  -1.955778
   66  H  4  X   -0.007566   0.090228  -0.018249  -0.019944  -0.012902
   67  H  4  Y   -0.332079   0.012375  -0.439881  -0.568350  -0.471464
   68  H  4  Z   -0.307106   0.013407  -0.208593  -0.570541   0.402806
   69  H  5  S   -0.020127  -0.000726  -0.017636  -0.021747   0.225921
   70  H  5  S   -0.042765  -0.030830  -2.726420   1.115241   2.828324
   71  H  5  X   -0.000182   0.001591   0.000774  -0.000599   0.000517
   72  H  5  Y   -0.007986   0.000782   0.026107  -0.016430   0.011437
   73  H  5  Z    0.000676  -0.000178  -0.013592   0.014690  -0.000255
   74  H  5  S   -1.245476   0.066763  -4.222810   6.581124   2.802270
   75  H  5  X    0.007103   0.122051   0.019685  -0.018657   0.011294
   76  H  5  Y   -0.005610   0.000728   0.667854  -0.422335   0.139453
   77  H  5  Z    0.104389  -0.011318  -0.420457   0.166102   0.435999

                     21         22         23         24         25
                    0.1685     0.1953     0.2194     0.2532     0.2856
                     A          A          A          A          A   
    1  C  1  S    0.049138   0.018797  -0.000325  -0.005331  -0.009462
    2  C  1  S    0.158329   0.012133   0.000322  -0.030527  -0.135775
    3  C  1  S   -2.134655  -0.562892  -0.009398   0.755943   0.385793
    4  C  1  X   -0.000071   0.003819   0.002362  -0.005875  -0.000274
    5  C  1  Y   -0.066611   0.124493   0.011638  -0.200145   0.009347
    6  C  1  Z   -0.062252  -0.020090  -0.000080   0.074777  -0.011949
    7  C  1  X    0.002706   0.032124  -0.071523  -0.008458   0.001676
    8  C  1  Y   -0.093373   0.605553   0.028044  -0.219596   0.080603
    9  C  1  Z   -1.018928   1.223872  -0.070428   0.766322   2.381673
   10  C  1 XX    0.014457  -0.024839   0.003333  -0.015219  -0.023468
   11  C  1 YY   -0.005895   0.025601  -0.002824   0.017438  -0.073755
   12  C  1 ZZ   -0.008562  -0.000762  -0.000509  -0.002219   0.097223
   13  C  1 XY   -0.000266   0.002275   0.047217   0.003192  -0.002167
   14  C  1 XZ   -0.001599   0.001520  -0.002513  -0.000857  -0.000575
   15  C  1 YZ   -0.037804   0.037291   0.001504  -0.031576  -0.013295
   16  C  1  S  -18.312102 -20.818368   0.749996 -10.442547   2.307889
   17  C  1  X   -0.006008   0.084613   0.019127  -0.059575  -0.025526
   18  C  1  Y   -0.152797   2.484406   0.027065  -1.736885  -0.959170
   19  C  1  Z   -6.218958  -5.882872   0.214762  -2.304761   4.018696
   20  C  1 XX    0.179341   0.119257  -0.008883   0.082798  -0.272711
   21  C  1 YY    0.143476  -0.557851   0.023770  -0.214371   0.139869
   22  C  1 ZZ   -0.322817   0.438595  -0.014887   0.131572   0.132843
   23  C  1 XY   -0.001377  -0.030180  -0.175170  -0.023775   0.021873
   24  C  1 XZ    0.014990  -0.000584  -0.018973   0.027682   0.002905
   25  C  1 YZ    0.448285  -0.197988  -0.028974   0.860236   0.210124
   26  C  2  S   -0.045731  -0.017643   0.000296  -0.004210   0.033854
   27  C  2  S   -0.197980  -0.048867   0.000496  -0.000557   0.161693
   28  C  2  S    1.628595  -0.513913   0.013594  -0.379102  -0.616223
   29  C  2  X   -0.004264   0.006179  -0.040929   0.011394  -0.004698
   30  C  2  Y   -0.037880   0.061621  -0.009563   0.288505  -0.039294
   31  C  2  Z   -0.109235  -0.007683   0.001672   0.021832  -0.249655
   32  C  2  X   -0.005604   0.038766  -0.232214   0.018993   0.019618
   33  C  2  Y   -0.151090   0.790561  -0.033835   0.385912   0.419351
   34  C  2  Z   -1.212478   1.124067  -0.064135   0.803057   1.543601
   35  C  2 XX   -0.016267   0.012160   0.001382   0.014632   0.028973
   36  C  2 YY    0.011447   0.003618  -0.001835  -0.021551   0.021251
   37  C  2 ZZ    0.004821  -0.015778   0.000453   0.006918  -0.050224
   38  C  2 XY    0.002090  -0.000792   0.022055  -0.001113   0.000258
   39  C  2 XZ    0.000654  -0.002412   0.009163   0.000499  -0.000152
   40  C  2 YZ    0.018049  -0.052597  -0.001159   0.010051  -0.007122
   41  C  2  S   18.549174  20.956392  -0.764015  11.090009  -4.010615
   42  C  2  X   -0.091359  -0.041619  -0.169557   0.061670   0.055156
   43  C  2  Y   -1.678404  -1.012725   0.003312   1.597471   1.285785
   44  C  2  Z   -6.146201  -5.241931   0.223493  -2.437940   1.575897
   45  C  2 XX   -0.184725  -0.163159   0.012823  -0.002956   0.184885
   46  C  2 YY   -0.167961   0.199932  -0.029904   0.202628   0.177231
   47  C  2 ZZ    0.352686  -0.036773   0.017081  -0.199672  -0.362117
   48  C  2 XY    0.004616   0.018873   0.255163   0.023446  -0.001501
   49  C  2 XZ    0.012176   0.020780  -0.114747   0.017888   0.009178
   50  C  2 YZ    0.337442   0.276654  -0.019812   0.616329   0.324827
   51  H  3  S    0.177391  -0.179560   0.001664  -0.091699  -0.023432
   52  H  3  S   -0.271213  -3.008566   0.176000  -2.935133  -2.119531
   53  H  3  X    0.000528   0.000055  -0.004130  -0.000439   0.000191
   54  H  3  Y    0.013053  -0.002277  -0.000009  -0.003229   0.002535
   55  H  3  Z    0.005036  -0.007305   0.000125  -0.004688  -0.011905
   56  H  3  S    3.158484   1.715314  -0.109878   0.178178  -2.667101
   57  H  3  X    0.036749   0.034473   0.523719   0.015609   0.058582
   58  H  3  Y    0.595778   0.627214  -0.047639  -0.237218   0.701947
   59  H  3  Z    0.159970  -0.198074  -0.022564   0.215952   0.250765
   60  H  4  S   -0.160715   0.216965   0.002436   0.013719   0.018170
   61  H  4  S   -0.610838   3.614785   0.001759  -0.750794   1.162917
   62  H  4  X    0.000801  -0.000086  -0.000644  -0.000058   0.000554
   63  H  4  Y    0.019966   0.001771  -0.000445  -0.000019   0.015541
   64  H  4  Z    0.022126  -0.001528  -0.000955   0.024549  -0.008842
   65  H  4  S   -2.020676   0.913737   0.025199  -0.459525   0.914488
   66  H  4  X   -0.001748   0.004695  -0.729857  -0.051582   0.027668
   67  H  4  Y    0.138167   0.194210   0.018151  -0.334294   0.590706
   68  H  4  Z    0.221426   0.137035  -0.018932   0.426022  -0.853559
   69  H  5  S    0.029086  -0.054679  -0.006522   0.155765   0.047088
   70  H  5  S    1.534123   1.079707  -0.165975   2.755982   1.890747
   71  H  5  X   -0.000448   0.000109   0.003130   0.000688  -0.000490
   72  H  5  Y   -0.015816   0.001978  -0.000362   0.016469  -0.012675
   73  H  5  Z   -0.007910   0.016181   0.000887  -0.017856  -0.017399
   74  H  5  S   -1.446949  -3.078298   0.089648  -0.007450   2.689085
   75  H  5  X   -0.004175   0.004791   0.833195   0.038817  -0.029190
   76  H  5  Y   -0.472756  -0.049132  -0.010124  -0.032954  -0.827788
   77  H  5  Z   -0.037430   0.604401   0.004741  -0.518417  -0.877059

                     26         27         28         29         30
                    0.3083     0.3150     0.3553     0.3772     0.4045
                     A          A          A          A          A   
    1  C  1  S    0.001615  -0.030635  -0.000390  -0.019922   0.040271
    2  C  1  S    0.007332  -0.129854   0.000391  -0.059308  -0.017015
    3  C  1  S   -0.066943   1.450835   0.025673   1.788608  -2.123363
    4  C  1  X   -0.058941  -0.011350  -0.246471   0.011444   0.002782
    5  C  1  Y    0.009234  -0.138959   0.008776   0.279089   0.054934
    6  C  1  Z    0.014114  -0.251856  -0.000507  -0.075282  -0.000304
    7  C  1  X   -0.346297  -0.000989  -0.967742   0.109593   0.014743
    8  C  1  Y   -0.013766   0.228810   0.028212   3.100664   0.306312
    9  C  1  Z   -0.152249   2.341942   0.032175   1.760721  -1.820559
   10  C  1 XX   -0.000807  -0.027163   0.000377  -0.013570   0.018420
   11  C  1 YY    0.003531   0.000686  -0.000655   0.006506   0.008609
   12  C  1 ZZ   -0.002724   0.026477   0.000278   0.007064  -0.027029
   13  C  1 XY   -0.034629  -0.000197   0.011132   0.000438  -0.000274
   14  C  1 XZ   -0.018397  -0.001953  -0.029562  -0.001667  -0.000299
   15  C  1 YZ    0.002397  -0.023208   0.001202  -0.050331  -0.010230
   16  C  1  S   -0.489568   5.237479   0.036643   0.111635  -6.290840
   17  C  1  X   -0.097391  -0.142583  -1.113361   0.164746   0.066888
   18  C  1  Y    0.222046  -3.621371   0.049190   4.839940   1.597791
   19  C  1  Z   -0.178324   1.524415   0.001026  -0.050862  -1.794018
   20  C  1 XX    0.046671  -0.083884  -0.018765  -0.080251   0.529491
   21  C  1 YY   -0.008116  -0.561088  -0.001221  -0.335934   0.613468
   22  C  1 ZZ   -0.038555   0.644971   0.019987   0.416185  -1.142959
   23  C  1 XY    0.516535   0.006328  -0.227494  -0.016592  -0.010752
   24  C  1 XZ    0.004807   0.049022   0.077969   0.005986   0.006885
   25  C  1 YZ   -0.064800   1.053100  -0.007163   0.303611   0.268199
   26  C  2  S   -0.002167   0.027988   0.000108   0.010381   0.032316
   27  C  2  S   -0.008533   0.110742   0.000694   0.028305  -0.012798
   28  C  2  S    0.106003  -1.577713  -0.029227  -0.574253  -0.258915
   29  C  2  X   -0.112196  -0.006382   0.044939   0.001713  -0.008888
   30  C  2  Y    0.003092   0.034143   0.001172   0.034672  -0.202877
   31  C  2  Z    0.002212   0.017599  -0.001473  -0.018279   0.034738
   32  C  2  X   -0.638364  -0.056198   0.448845   0.026326  -0.110363
   33  C  2  Y    0.065368  -0.492834   0.008780   0.188563  -2.258351
   34  C  2  Z   -0.178353   3.024502   0.035221   2.038041  -2.953751
   35  C  2 XX    0.001136   0.028898  -0.000775   0.007261   0.005480
   36  C  2 YY   -0.006085   0.051663   0.000757   0.011171  -0.021100
   37  C  2 ZZ    0.004949  -0.080561   0.000017  -0.018432   0.015620
   38  C  2 XY    0.035192   0.003184  -0.010282   0.000186  -0.001924
   39  C  2 XZ    0.024729   0.000200   0.015140   0.000250  -0.000442
   40  C  2 YZ    0.000055  -0.021391  -0.000252   0.006165  -0.007207
   41  C  2  S    0.400393  -4.212848   0.030634   0.606125   0.737421
   42  C  2  X   -0.469378   0.101339   0.538997  -0.010438  -0.137247
   43  C  2  Y   -0.155155   2.652190  -0.005934  -0.627041  -2.754536
   44  C  2  Z   -0.275416   3.938151  -0.008209   0.607655  -1.909099
   45  C  2 XX   -0.048382   0.357306  -0.015878   0.143730   0.896235
   46  C  2 YY    0.008727   0.384204   0.023621   0.776273  -0.955625
   47  C  2 ZZ    0.039656  -0.741511  -0.007744  -0.920003   0.059390
   48  C  2 XY   -0.363723  -0.015866  -0.178330   0.030423  -0.108400
   49  C  2 XZ   -0.163673   0.047653   0.327529   0.025157   0.003997
   50  C  2 YZ   -0.060399   1.155918  -0.016286   0.725908   0.124200
   51  H  3  S    0.003099  -0.021015  -0.000403   0.054904  -0.034194
   52  H  3  S    0.182086  -2.989535  -0.067383  -3.305347   6.778184
   53  H  3  X    0.004933   0.000085   0.000143  -0.000024   0.000046
   54  H  3  Y   -0.000133  -0.000722  -0.000039   0.000365   0.002095
   55  H  3  Z    0.002216  -0.034739  -0.000073  -0.009574   0.008955
   56  H  3  S    0.227106  -2.921788  -0.004874  -0.570672   3.011493
   57  H  3  X    1.515206   0.140538  -0.389889   0.033648  -0.087533
   58  H  3  Y   -0.135948   1.045190   0.023761   0.484393  -1.429219
   59  H  3  Z    0.056751  -1.068635   0.018448   0.746920  -0.881633
   60  H  4  S    0.005313  -0.051574  -0.000904   0.026046   0.038919
   61  H  4  S    0.021553  -0.544393   0.009449   4.334491   0.161519
   62  H  4  X    0.004999  -0.000021  -0.011927   0.000226   0.000342
   63  H  4  Y   -0.000553  -0.000780   0.000311   0.004989   0.003941
   64  H  4  Z   -0.000229   0.004065  -0.000047   0.002812   0.000683
   65  H  4  S    0.065553  -1.317196   0.007739   4.143639   0.216323
   66  H  4  X    1.289781   0.076127   0.716192  -0.004653  -0.030487
   67  H  4  Y   -0.073318   0.152029  -0.021335  -0.092754  -0.296119
   68  H  4  Z   -0.039589   0.774231   0.007991   1.553969  -0.434012
   69  H  5  S   -0.000583   0.045061  -0.001570   0.009518   0.022295
   70  H  5  S   -0.173310   3.342116  -0.009217  -2.681006   0.502163
   71  H  5  X   -0.006438  -0.000114  -0.010037   0.000572  -0.000129
   72  H  5  Y    0.000166   0.008250   0.000278   0.014411   0.000642
   73  H  5  Z    0.002081  -0.032886   0.000112  -0.018199   0.001609
   74  H  5  S   -0.253423   3.685589  -0.028864  -3.854082  -0.968829
   75  H  5  X   -0.458251  -0.023329   1.620949  -0.020583   0.011422
   76  H  5  Y    0.059909  -0.555655  -0.052444  -0.396815  -0.215121
   77  H  5  Z   -0.005446   0.403371   0.004784  -0.909816  -0.200170

                     31         32         33         34         35
                    0.4383     0.4439     0.4485     0.4763     0.4834
                     A          A          A          A          A   
    1  C  1  S    0.065246   0.011845  -0.002772   0.021836  -0.002749
    2  C  1  S    0.029900  -0.048569   0.001811  -0.025096  -0.020578
    3  C  1  S   -4.189362   0.911119  -0.005558  -2.172718   0.139195
    4  C  1  X    0.003348   0.028417   0.248182  -0.010806   0.049911
    5  C  1  Y    0.026616  -0.066560  -0.004952  -0.133708   0.030599
    6  C  1  Z    0.082220   0.000517  -0.011037  -0.012048  -0.059395
    7  C  1  X    0.015960   0.242835   1.800016  -0.163273   0.314362
    8  C  1  Y   -0.604140   1.210752  -0.356239  -3.597937  -0.455807
    9  C  1  Z    5.979470   3.686280  -0.483211  -0.804203  -0.517847
   10  C  1 XX    0.017639  -0.008723   0.000194  -0.012804  -0.001558
   11  C  1 YY   -0.026443  -0.004932   0.001130   0.012777   0.001023
   12  C  1 ZZ    0.008804   0.013655  -0.001324   0.000028   0.000535
   13  C  1 XY   -0.001704   0.000616   0.002066   0.000977   0.005126
   14  C  1 XZ    0.000364  -0.000293  -0.014059   0.000438   0.031351
   15  C  1 YZ    0.020348   0.011038   0.000699  -0.012224   0.009429
   16  C  1  S   -6.885008  -3.885757   0.779435   3.650600   0.840631
   17  C  1  X    0.005245   0.172563   1.130163  -0.051896  -0.160526
   18  C  1  Y   -0.568476   1.634995  -0.294580  -0.782550  -0.170261
   19  C  1  Z    1.110339   0.226686   0.005050   0.793891   0.007890
   20  C  1 XX    0.581616   0.257362  -0.077913  -0.458796  -0.037609
   21  C  1 YY   -1.947717  -0.727593   0.101070   0.489118  -0.003915
   22  C  1 ZZ    1.366101   0.470231  -0.023157  -0.030322   0.041524
   23  C  1 XY   -0.091630  -0.073268  -0.250434   0.062010   0.326146
   24  C  1 XZ    0.015189  -0.153925  -0.101366  -0.024578  -1.419784
   25  C  1 YZ    0.581214  -2.643307   0.280651  -0.130653   0.298900
   26  C  2  S    0.062774   0.027550  -0.002412   0.053928  -0.000869
   27  C  2  S   -0.000372  -0.025250   0.006994   0.014202   0.021207
   28  C  2  S   -6.487927  -2.398565   0.240999  -4.301081   0.356121
   29  C  2  X    0.001902  -0.016495  -0.256119   0.000882   0.249020
   30  C  2  Y    0.127780   0.064429   0.002344  -0.136484  -0.004811
   31  C  2  Z    0.027888  -0.081120  -0.000395  -0.176742  -0.038263
   32  C  2  X   -0.039542   0.112387  -0.711645  -0.066310   1.521598
   33  C  2  Y   -0.682796   3.212103  -0.285066  -1.458930  -0.144319
   34  C  2  Z    3.109554   2.751038  -0.355746  -2.370317  -0.450547
   35  C  2 XX    0.033158  -0.001329   0.000408  -0.010740   0.003029
   36  C  2 YY   -0.012456   0.027107  -0.003045   0.016541  -0.002785
   37  C  2 ZZ   -0.020703  -0.025779   0.002637  -0.005801  -0.000244
   38  C  2 XY   -0.002243   0.002070   0.004359   0.001502  -0.004115
   39  C  2 XZ   -0.001040   0.000672  -0.015428   0.001388  -0.002206
   40  C  2 YZ   -0.020359   0.054881  -0.005458   0.013307  -0.007715
   41  C  2  S   -0.714386   1.370489  -0.380460  -4.720360  -0.660726
   42  C  2  X   -0.003138  -0.093945  -1.180270   0.012242   0.523796
   43  C  2  Y    0.502981   0.033488   0.067019  -0.237080  -0.018242
   44  C  2  Z   -0.233564  -0.135486   0.067814   0.156998   0.065915
   45  C  2 XX    0.042211   0.216442  -0.073284  -0.141608   0.140853
   46  C  2 YY    0.524447   1.355330  -0.067257   0.099067   0.010487
   47  C  2 ZZ   -0.566658  -1.571772   0.140541   0.042541  -0.151340
   48  C  2 XY    0.007994   0.036914  -0.664635   0.018731   0.967665
   49  C  2 XZ   -0.002594   0.089460   1.054984  -0.056760   0.302938
   50  C  2 YZ   -0.382682  -0.825301   0.010273  -0.362171  -0.188065
   51  H  3  S   -0.091936   0.187353  -0.021019   0.129088  -0.037629
   52  H  3  S    1.163146  -3.191893   0.405403   6.456143   0.291117
   53  H  3  X   -0.000885  -0.000513  -0.017266   0.001815   0.022022
   54  H  3  Y   -0.018757   0.013375  -0.000118   0.029366  -0.003085
   55  H  3  Z   -0.020528   0.025671  -0.002979   0.003372  -0.006910
   56  H  3  S   -0.038824  -0.205504   0.015010   0.887408   0.060694
   57  H  3  X   -0.006196   0.029296   0.747900  -0.170238  -1.401649
   58  H  3  Y   -0.414330  -0.187128  -0.068301  -3.230746  -0.069604
   59  H  3  Z   -0.079839   1.442856  -0.115569  -0.982817   0.349647
   60  H  4  S   -0.043224  -0.082915   0.012509   0.016177   0.043310
   61  H  4  S    6.279451   9.257673  -1.313455  -5.754389  -1.156575
   62  H  4  X    0.000277   0.001077   0.016916  -0.000319  -0.004626
   63  H  4  Y    0.007156  -0.018289   0.001170   0.004056  -0.000694
   64  H  4  Z   -0.006131  -0.011531   0.000023  -0.000697  -0.009404
   65  H  4  S    1.445052   1.872256  -0.279763  -0.882266  -0.143411
   66  H  4  X    0.041071  -0.041722  -1.303681  -0.028561  -0.172931
   67  H  4  Y    1.150194   2.979528  -0.349612  -1.588203  -0.280188
   68  H  4  Z    1.847253   0.096406  -0.047153  -1.216714   0.039745
   69  H  5  S   -0.176456   0.093702  -0.009683   0.110612  -0.029384
   70  H  5  S    9.059135  -2.705486   0.351235   4.630396   0.334602
   71  H  5  X   -0.000223   0.001164   0.008050   0.000779   0.013556
   72  H  5  Y   -0.006962  -0.005469   0.000422   0.022607  -0.003619
   73  H  5  Z    0.007132  -0.004279   0.000839   0.003150   0.002534
   74  H  5  S    1.528111  -0.536850   0.094905   0.810462  -0.007802
   75  H  5  X   -0.071920  -0.023730  -0.437447  -0.096950  -1.156844
   76  H  5  Y   -2.093720   1.521609  -0.167414  -2.534560   0.047014
   77  H  5  Z    1.147483   0.959243  -0.045528   1.415738   0.083547

                     36         37         38         39         40
                    0.4870     0.4935     0.5048     0.5569     0.5630
                     A          A          A          A          A   
    1  C  1  S    0.014597   0.104058  -0.026119   0.077409   0.011785
    2  C  1  S   -0.106243  -0.000738  -0.027655   0.021871   0.004298
    3  C  1  S   -1.844558  -8.231479   4.409057  -8.313349  -1.169948
    4  C  1  X   -0.008809   0.005296  -0.005504  -0.003972   0.070857
    5  C  1  Y    0.172677  -0.000766  -0.109168  -0.061086  -0.005591
    6  C  1  Z   -0.228894   0.331152  -0.088465  -0.143849  -0.023267
    7  C  1  X   -0.149990  -0.001757  -0.304064  -0.178442   1.362420
    8  C  1  Y   -0.457151  -0.990029  -7.095687  -0.181700  -0.054862
    9  C  1  Z   -2.847396  -2.623980   1.411057  -1.557546  -0.378298
   10  C  1 XX   -0.010559   0.009199  -0.006154   0.026607   0.004428
   11  C  1 YY    0.013953   0.031380  -0.009193  -0.007993  -0.001808
   12  C  1 ZZ   -0.003394  -0.040579   0.015347  -0.018614  -0.002620
   13  C  1 XY    0.000089   0.000975  -0.000368  -0.002103   0.002490
   14  C  1 XZ   -0.003020   0.000907  -0.000457   0.006889  -0.055518
   15  C  1 YZ    0.055344  -0.004311   0.013531  -0.027856  -0.001576
   16  C  1  S    4.453549  -5.248401  -4.747811 -14.607441  -2.391132
   17  C  1  X    0.001109  -0.017887  -0.069083   0.001133   0.226703
   18  C  1  Y   -0.182495  -0.600802  -1.892658   0.906215   0.132583
   19  C  1  Z    0.383863  -0.246137  -0.967097  -4.825408  -0.791360
   20  C  1 XX   -0.299726   0.320165   0.559946  -0.065129   0.123572
   21  C  1 YY    0.589059   2.641999  -0.675136  -1.810218  -0.329967
   22  C  1 ZZ   -0.289333  -2.962164   0.115189   1.875347   0.206394
   23  C  1 XY   -0.013045   0.105403  -0.063362  -0.276483   1.585980
   24  C  1 XZ    0.290686  -0.043446   0.071365  -0.252786   2.168592
   25  C  1 YZ    0.785239   0.402102   0.276066   0.201639  -0.012202
   26  C  2  S   -0.007806  -0.088736  -0.030485  -0.050485  -0.008272
   27  C  2  S    0.088804  -0.084412  -0.010153   0.134437   0.018526
   28  C  2  S    2.496416  10.130490   2.723488   2.856199   0.551493
   29  C  2  X   -0.034588   0.007073  -0.003986   0.050764  -0.315426
   30  C  2  Y    0.069532  -0.024146  -0.017147   0.000416   0.008434
   31  C  2  Z   -0.188654   0.183258  -0.001360  -0.082535  -0.011529
   32  C  2  X   -0.281308   0.118316   0.095158   0.189959  -1.431746
   33  C  2  Y   -0.528366   1.100100   3.269627   0.611677   0.079003
   34  C  2  Z   -3.111059  -2.991643   2.583724  -1.433749  -0.338554
   35  C  2 XX    0.010142  -0.050135   0.003168   0.010639   0.002733
   36  C  2 YY   -0.013608   0.004540   0.006903  -0.026822  -0.005624
   37  C  2 ZZ    0.003466   0.045595  -0.010071   0.016183   0.002891
   38  C  2 XY   -0.001371   0.002606   0.000634  -0.006024   0.026929
   39  C  2 XZ   -0.000383   0.000197   0.001047   0.002848  -0.033057
   40  C  2 YZ   -0.031263   0.007652   0.009760  -0.014319  -0.000871
   41  C  2  S   -4.263327   5.539077   5.744745  15.574874   2.575681
   42  C  2  X   -0.087427   0.035118   0.035735   0.003596  -0.390523
   43  C  2  Y   -0.201338   0.466698   0.972684  -1.173063  -0.164847
   44  C  2  Z    0.372513  -0.745481  -0.691985  -3.786209  -0.636788
   45  C  2 XX    0.223790  -0.339769  -0.021738  -0.370771  -0.061712
   46  C  2 YY    0.314697  -0.545662   1.479821  -0.915249  -0.133527
   47  C  2 ZZ   -0.538487   0.885431  -1.458083   1.286020   0.195239
   48  C  2 XY   -0.161706   0.028111   0.030522  -0.036267   0.047959
   49  C  2 XZ   -0.150198   0.036844  -0.059225  -0.201005   1.892531
   50  C  2 YZ   -0.938726   0.264066  -0.351534   1.036984   0.108838
   51  H  3  S   -0.181164  -0.023957   0.046390  -0.152105  -0.017166
   52  H  3  S    2.348476  -3.986413  -7.338984  -3.012213  -0.403051
   53  H  3  X   -0.004079   0.001100  -0.000341  -0.000979  -0.001972
[...]
 II,JST,KST,LST =  2  1  1  1 NREC =         1 INTLOC =    1
 II,JST,KST,LST =  3  1  1  1 NREC =         1 INTLOC =    1
 II,JST,KST,LST =  4  1  1  1 NREC =         1 INTLOC =    1
 II,JST,KST,LST =  5  1  1  1 NREC =         1 INTLOC =    1
 II,JST,KST,LST =  6  1  1  1 NREC =         1 INTLOC =    1
 II,JST,KST,LST =  7  1  1  1 NREC =         1 INTLOC =    4
 II,JST,KST,LST =  8  1  1  1 NREC =         1 INTLOC =  250
 II,JST,KST,LST =  9  1  1  1 NREC =         1 INTLOC =  250
 II,JST,KST,LST = 10  1  1  1 NREC =         1 INTLOC =  250
 II,JST,KST,LST = 11  1  1  1 NREC =         1 INTLOC = 1576
 II,JST,KST,LST = 12  1  1  1 NREC =         1 INTLOC = 1576
 II,JST,KST,LST = 13  1  1  1 NREC =         1 INTLOC = 1576
 II,JST,KST,LST = 14  1  1  1 NREC =         1 INTLOC = 1576
 II,JST,KST,LST = 15  1  1  1 NREC =         1 INTLOC = 4090
 II,JST,KST,LST = 16  1  1  1 NREC =         1 INTLOC = 4090
 II,JST,KST,LST = 17  1  1  1 NREC =         1 INTLOC = 5442
 II,JST,KST,LST = 18  1  1  1 NREC =         1 INTLOC = 5442
 II,JST,KST,LST = 19  1  1  1 NREC =         1 INTLOC =12793
 II,JST,KST,LST = 20  1  1  1 NREC =         1 INTLOC =12793
 II,JST,KST,LST = 21  1  1  1 NREC =         2 INTLOC = 2593
 II,JST,KST,LST = 22  1  1  1 NREC =         2 INTLOC =14589
 II,JST,KST,LST = 23  1  1  1 NREC =         3 INTLOC =14832
 II,JST,KST,LST = 24  1  1  1 NREC =         4 INTLOC = 3072
 II,JST,KST,LST = 25  1  1  1 NREC =         5 INTLOC = 5156
 II,JST,KST,LST = 26  1  1  1 NREC =         5 INTLOC = 9186
 II,JST,KST,LST = 27  1  1  1 NREC =         9 INTLOC =13941
 II,JST,KST,LST = 28  1  1  1 NREC =         9 INTLOC =13941
 II,JST,KST,LST = 29  1  1  1 NREC =         9 INTLOC =13941
 II,JST,KST,LST = 30  1  1  1 NREC =        10 INTLOC = 6218
 II,JST,KST,LST = 31  1  1  1 NREC =        11 INTLOC = 6345
 II,JST,KST,LST = 32  1  1  1 NREC =        12 INTLOC = 7569
 II,JST,KST,LST = 33  1  1  1 NREC =        13 INTLOC = 9568
 II,JST,KST,LST = 34  1  1  1 NREC =        19 INTLOC = 1137
 II,JST,KST,LST = 35  1  1  1 NREC =        19 INTLOC = 1137
 II,JST,KST,LST = 36  1  1  1 NREC =        20 INTLOC = 8416
 II,JST,KST,LST = 37  1  1  1 NREC =        22 INTLOC = 1631
 II,JST,KST,LST = 38  1  1  1 NREC =        26 INTLOC =13998
 II,JST,KST,LST = 39  1  1  1 NREC =        31 INTLOC = 8652
 II,JST,KST,LST = 40  1  1  1 NREC =        37 INTLOC = 8973
 II,JST,KST,LST = 41  1  1  1 NREC =        40 INTLOC =11584
 II,JST,KST,LST = 42  1  1  1 NREC =        45 INTLOC = 6245
 II,JST,KST,LST = 43  1  1  1 NREC =        71 INTLOC = 2700
 II,JST,KST,LST = 44  1  1  1 NREC =        71 INTLOC = 2700
 II,JST,KST,LST = 45  1  1  1 NREC =        71 INTLOC = 2700
 II,JST,KST,LST = 46  1  1  1 NREC =        73 INTLOC = 5726
 II,JST,KST,LST = 47  1  1  1 NREC =        80 INTLOC =  210
 II,JST,KST,LST = 48  1  1  1 NREC =        85 INTLOC =14610
 II,JST,KST,LST = 49  1  1  1 NREC =       123 INTLOC = 9106
 II,JST,KST,LST = 50  1  1  1 NREC =       123 INTLOC = 9106
 II,JST,KST,LST = 51  1  1  1 NREC =       123 INTLOC = 9106
 II,JST,KST,LST = 52  1  1  1 NREC =       146 INTLOC = 1684
 II,JST,KST,LST = 53  1  1  1 NREC =       153 INTLOC =  672
 II,JST,KST,LST = 54  1  1  1 NREC =       158 INTLOC =14482
 II,JST,KST,LST = 55  1  1  1 NREC =       166 INTLOC =12140
 II,JST,KST,LST = 56  1  1  1 NREC =       173 INTLOC =  599
 II,JST,KST,LST = 57  1  1  1 NREC =       203 INTLOC =13435
 II,JST,KST,LST = 58  1  1  1 NREC =       203 INTLOC =13435
 II,JST,KST,LST = 59  1  1  1 NREC =       207 INTLOC = 8950
 II,JST,KST,LST = 60  1  1  1 NREC =       221 INTLOC = 4267
 II,JST,KST,LST = 61  1  1  1 NREC =       226 INTLOC =12514
 II,JST,KST,LST = 62  1  1  1 NREC =       253 INTLOC = 2856
 II,JST,KST,LST = 63  1  1  1 NREC =       259 INTLOC = 9938
 II,JST,KST,LST = 64  1  1  1 NREC =       263 INTLOC =  767
 II,JST,KST,LST = 65  1  1  1 NREC =       279 INTLOC =13863
 II,JST,KST,LST = 66  1  1  1 NREC =       283 INTLOC = 3067
 SCHWARZ INEQUALITY TEST SKIPPED       59410 INTEGRAL BLOCKS.
 TOTAL NUMBER OF NONZERO TWO-ELECTRON INTEGRALS =            66447712
       4439 INTEGRAL RECORDS WERE STORED ON DISK FILE  8.
  ...... END OF TWO-ELECTRON INTEGRALS .....
 CPU     0: STEP CPU TIME=     0.26 TOTAL CPU TIME=         23.2 (      0.4 MIN)
 TOTAL WALL CLOCK TIME=         23.6 SECONDS, CPU UTILIZATION IS    98.33%

          ---------------------------------------------
          MONOMER ELECTROSTATIC INTERACTION (OWN BASIS)
          ---------------------------------------------

          -------------
          GUESS OPTIONS
          -------------
          GUESS =MOSAVED           NORB  =       0          NORDER=       0
          MIX   =       F          PRTMO =       F          PUNMO =       F
          TOLZ  = 1.0E-08          TOLE  = 1.0E-05
          SYMDEN=       F          PURIFY=       F

 INITIAL GUESS ORBITALS GENERATED BY MOSAVED  ROUTINE.

 STATISTICS FOR GENERATION OF SYMMETRY ORBITAL -Q- MATRIX
 NUMBER OF CARTESIAN ATOMIC ORBITALS=        154
 NUMBER OF SPHERICAL CONTAMINANTS DROPPED=     8
 NUMBER OF LINEARLY DEPENDENT MOS DROPPED=     0
 TOTAL NUMBER OF MOS IN VARIATION SPACE=     146
 ...... END OF INITIAL ORBITAL SELECTION ......
 CPU     0: STEP CPU TIME=     0.01 TOTAL CPU TIME=         23.2 (      0.4 MIN)
 TOTAL WALL CLOCK TIME=         23.6 SECONDS, CPU UTILIZATION IS    98.33%

          ---------------------------
                  UHF SCF CALCULATION
          ---------------------------

 FINAL UHF ENERGY IS     -155.2929287467 AFTER   1 ITERATIONS
 ...... END OF UHF CALCULATION ......
 CPU     0: STEP CPU TIME=     0.08 TOTAL CPU TIME=         23.3 (      0.4 MIN)
 TOTAL WALL CLOCK TIME=         23.7 SECONDS, CPU UTILIZATION IS    98.32%

          -------------
          GUESS OPTIONS
          -------------
          GUESS =MOSAVED           NORB  =       0          NORDER=       0
          MIX   =       F          PRTMO =       F          PUNMO =       F
          TOLZ  = 1.0E-08          TOLE  = 1.0E-05
          SYMDEN=       F          PURIFY=       F

 INITIAL GUESS ORBITALS GENERATED BY MOSAVED  ROUTINE.

 STATISTICS FOR GENERATION OF SYMMETRY ORBITAL -Q- MATRIX
 NUMBER OF CARTESIAN ATOMIC ORBITALS=        154
 NUMBER OF SPHERICAL CONTAMINANTS DROPPED=     8
 NUMBER OF LINEARLY DEPENDENT MOS DROPPED=     0
 TOTAL NUMBER OF MOS IN VARIATION SPACE=     146
 ...... END OF INITIAL ORBITAL SELECTION ......
 CPU     0: STEP CPU TIME=     0.00 TOTAL CPU TIME=         23.3 (      0.4 MIN)
 TOTAL WALL CLOCK TIME=         23.7 SECONDS, CPU UTILIZATION IS    98.32%

          ---------------------------
                  UHF SCF CALCULATION
          ---------------------------

 DIRECT SCF CALCULATION, SCHWRZ=T   FDIFF=T
 SCHWARZ INEQUALITY OVERHEAD:     11926 INTEGRALS, T=        0.00

 FINAL UHF ENERGY IS     -331.0379976741 AFTER   1 ITERATIONS
 ...... END OF UHF CALCULATION ......
 CPU     0: STEP CPU TIME=     0.27 TOTAL CPU TIME=         23.6 (      0.4 MIN)
 TOTAL WALL CLOCK TIME=         24.0 SECONDS, CPU UTILIZATION IS    98.28%

 XEDA STEP ENERGY SUMMATION
 ETOT =       -155.29292875     ENUC =        102.29772746
 EEXCH=        -22.94268689

          --------------------------------------------------
          MONOMER EXCHANGE-REPULSION INTERACTION (OWN BASIS)
          --------------------------------------------------

          -------------
          GUESS OPTIONS
          -------------
          GUESS =MOSAVED           NORB  =       0          NORDER=       0
          MIX   =       F          PRTMO =       F          PUNMO =       F
          TOLZ  = 1.0E-08          TOLE  = 1.0E-05
          SYMDEN=       F          PURIFY=       F

 INITIAL GUESS ORBITALS GENERATED BY MOSAVED  ROUTINE.

 STATISTICS FOR GENERATION OF SYMMETRY ORBITAL -Q- MATRIX
 NUMBER OF CARTESIAN ATOMIC ORBITALS=        154
 NUMBER OF SPHERICAL CONTAMINANTS DROPPED=     8
 NUMBER OF LINEARLY DEPENDENT MOS DROPPED=     0
 TOTAL NUMBER OF MOS IN VARIATION SPACE=     146
 ...... END OF INITIAL ORBITAL SELECTION ......
 CPU     0: STEP CPU TIME=     0.01 TOTAL CPU TIME=         23.6 (      0.4 MIN)
 TOTAL WALL CLOCK TIME=         24.0 SECONDS, CPU UTILIZATION IS    98.28%

          ---------------------------
                  UHF SCF CALCULATION
          ---------------------------

 FINAL UHF ENERGY IS     -154.6293419785 AFTER   1 ITERATIONS
 ...... END OF UHF CALCULATION ......
 CPU     0: STEP CPU TIME=     0.08 TOTAL CPU TIME=         23.7 (      0.4 MIN)
 TOTAL WALL CLOCK TIME=         24.1 SECONDS, CPU UTILIZATION IS    98.27%

 XEDA STEP ENERGY SUMMATION
 ETOT =       -154.62934198     ENUC =        102.29772746

          ---------------------------------------------
          MONOMER ELECTROSTATIC INTERACTION (ALL BASIS)
          ---------------------------------------------

          -------------
          GUESS OPTIONS
          -------------
          GUESS =MOSAVED           NORB  =       0          NORDER=       0
          MIX   =       F          PRTMO =       F          PUNMO =       F
          TOLZ  = 1.0E-08          TOLE  = 1.0E-05
          SYMDEN=       F          PURIFY=       F

 INITIAL GUESS ORBITALS GENERATED BY MOSAVED  ROUTINE.

 STATISTICS FOR GENERATION OF SYMMETRY ORBITAL -Q- MATRIX
 NUMBER OF CARTESIAN ATOMIC ORBITALS=        154
 NUMBER OF SPHERICAL CONTAMINANTS DROPPED=     8
 NUMBER OF LINEARLY DEPENDENT MOS DROPPED=     0
 TOTAL NUMBER OF MOS IN VARIATION SPACE=     146
 ...... END OF INITIAL ORBITAL SELECTION ......
 CPU     0: STEP CPU TIME=     0.01 TOTAL CPU TIME=         23.7 (      0.4 MIN)
 TOTAL WALL CLOCK TIME=         24.1 SECONDS, CPU UTILIZATION IS    98.27%

          ---------------------------
                  UHF SCF CALCULATION
          ---------------------------

 FINAL UHF ENERGY IS     -155.2995920540 AFTER   1 ITERATIONS
 ...... END OF UHF CALCULATION ......
 CPU     0: STEP CPU TIME=     0.08 TOTAL CPU TIME=         23.7 (      0.4 MIN)
 TOTAL WALL CLOCK TIME=         24.2 SECONDS, CPU UTILIZATION IS    98.27%

          -------------
          GUESS OPTIONS
          -------------
          GUESS =MOSAVED           NORB  =       0          NORDER=       0
          MIX   =       F          PRTMO =       F          PUNMO =       F
          TOLZ  = 1.0E-08          TOLE  = 1.0E-05
          SYMDEN=       F          PURIFY=       F

 INITIAL GUESS ORBITALS GENERATED BY MOSAVED  ROUTINE.

 STATISTICS FOR GENERATION OF SYMMETRY ORBITAL -Q- MATRIX
 NUMBER OF CARTESIAN ATOMIC ORBITALS=        154
 NUMBER OF SPHERICAL CONTAMINANTS DROPPED=     8
 NUMBER OF LINEARLY DEPENDENT MOS DROPPED=     0
 TOTAL NUMBER OF MOS IN VARIATION SPACE=     146
 ...... END OF INITIAL ORBITAL SELECTION ......
 CPU     0: STEP CPU TIME=     0.00 TOTAL CPU TIME=         23.8 (      0.4 MIN)
 TOTAL WALL CLOCK TIME=         24.2 SECONDS, CPU UTILIZATION IS    98.27%

          ---------------------------
                  UHF SCF CALCULATION
          ---------------------------

 DIRECT SCF CALCULATION, SCHWRZ=T   FDIFF=T
 SCHWARZ INEQUALITY OVERHEAD:     11926 INTEGRALS, T=        0.00

 FINAL UHF ENERGY IS     -331.0599746041 AFTER   1 ITERATIONS
 ...... END OF UHF CALCULATION ......
 CPU     0: STEP CPU TIME=     0.27 TOTAL CPU TIME=         24.0 (      0.4 MIN)
 TOTAL WALL CLOCK TIME=         24.5 SECONDS, CPU UTILIZATION IS    98.22%

 XEDA STEP ENERGY SUMMATION
 ETOT =       -155.29959205     ENUC =        102.29772746
 EEXCH=        -22.94338407

          --------------------------------------------------
          MONOMER EXCHANGE-REPULSION INTERACTION (ALL BASIS)
          --------------------------------------------------

          -------------
          GUESS OPTIONS
          -------------
          GUESS =MOSAVED           NORB  =       0          NORDER=       0
          MIX   =       F          PRTMO =       F          PUNMO =       F
          TOLZ  = 1.0E-08          TOLE  = 1.0E-05
          SYMDEN=       F          PURIFY=       F

 INITIAL GUESS ORBITALS GENERATED BY MOSAVED  ROUTINE.

 STATISTICS FOR GENERATION OF SYMMETRY ORBITAL -Q- MATRIX
 NUMBER OF CARTESIAN ATOMIC ORBITALS=        154
 NUMBER OF SPHERICAL CONTAMINANTS DROPPED=     8
 NUMBER OF LINEARLY DEPENDENT MOS DROPPED=     0
 TOTAL NUMBER OF MOS IN VARIATION SPACE=     146
 ...... END OF INITIAL ORBITAL SELECTION ......
 CPU     0: STEP CPU TIME=     0.01 TOTAL CPU TIME=         24.0 (      0.4 MIN)
 TOTAL WALL CLOCK TIME=         24.5 SECONDS, CPU UTILIZATION IS    98.23%

          ---------------------------
                  UHF SCF CALCULATION
          ---------------------------

 FINAL UHF ENERGY IS     -154.6342727598 AFTER   1 ITERATIONS
 ...... END OF UHF CALCULATION ......
 CPU     0: STEP CPU TIME=     0.08 TOTAL CPU TIME=         24.1 (      0.4 MIN)
 TOTAL WALL CLOCK TIME=         24.6 SECONDS, CPU UTILIZATION IS    98.21%

 XEDA STEP ENERGY SUMMATION
 ETOT =       -154.63427276     ENUC =        102.29772746

          --------------------------------
          RESULTS OF INTERACTION ANALYSIS
          --------------------------------

     ENERGY TERMS
     T   ELECTRON KINETIC AND COULOMB POTENTIAL
     X   E-E EXCHANGE COMBINE WITH DIAGNANAL VALUE
     N   NUCLEUS-NUCLEUS REPULSION ENERGY

 --------------
 MONOMER ENERGY
 --------------

 MONOMER    1

                   OWN BASIS           ALL BASIS

 T              -93.95231462        -93.95260709
 X              -11.31378211        -11.31405490
 N               27.88842432         27.88842432
 EC              -0.47433185         -0.47479301
 E              -77.85200427        -77.85303068

 MONOMER    2

                   OWN BASIS           ALL BASIS

 T              -93.95229928        -93.95259298
 X              -11.31379231        -11.31405951
 N               27.88841857         27.88841857
 EC              -0.47431868         -0.47480077
 E              -77.85199170        -77.85303470

 ------------------------------------------------------------
 SUPER MOLECULE ENERGY  USING NON-ANTISYMMETRIC WAVEFUNCTION
 (ELECTROSTATIC ENERGY: T N CHANGE)
 ------------------------------------------------------------

              FROM OWN BASIS      FROM ALL BASIS
 T             -234.64796931       -234.65393544
 X              -22.62757442        -22.62811442
 N              102.29772746        102.29772746
 E             -154.97781628       -154.98432240

 ----------------------------------------------------------------------
 SUPER MOLECULE ENERGY  USING ANTISYMMETRIC NONORTHONORMAL WAVEFUNCTION
 (EXCHANGE ENERGY: ONLY X CHANGES)
 ----------------------------------------------------------------------

              FROM OWN BASIS      FROM ALL BASIS
 T             -234.64796931       -234.65393544
 X              -22.94268689        -22.94338407
 N              102.29772746        102.29772746
 E             -155.29292875       -155.29959205

 -----------------------------------------------------------------------
 SUPER MOLECULE ENERGY  USING ANTISYMMETRIC AND ORTHONORMAL WAVEFUNCTION
 (REPULSION ENERGY: T X CHANGE)
 -----------------------------------------------------------------------

              FROM OWN BASIS      FROM ALL BASIS
 T+X           -256.92706943       -256.93200022
 N              102.29772746        102.29772746
 E             -154.62934198       -154.63427276

 ---------------------------------------------
 SUPER MOLECULE ENERGY  USING SCF WAVEFUNCTION
 (POLARIZATION ENERGY: T X CHANGE)
 ---------------------------------------------
 T+X           -257.20449300
 N              102.29772746
 EC              -0.98522861
 E             -155.89199416


                   *******************************
                   SUMMARY OF INTERACTION ENERGIES
                     XEDA IN XIAMEN UNIVERSITY    
                    - ZHEN TANG AND PEIFENG SU -  
                   *******************************


 -------------
 OWN BASIS SET                                       HARTREE          KCAL/MOL
 -------------
 ELECTROSTATIC ENERGY                  ES=         -0.222471           -139.60
 EXCHANGE ENERGY                       EX=         -0.315112           -197.74
 REPULSION ENERGY                     REP=          0.663587            416.41
 POLARIZATION ENERGY                  POL=         -0.277424           -174.09
 ELECTRON CORRELATION                CORR=         -0.036578            -22.95
 TOTAL INTERACTION ENERGY               E=         -0.187998           -117.97
  

 -------------
 ALL BASIS SET                                       HARTREE          KCAL/MOL
 -------------
 ELECTROSTATIC ENERGY                  ES=         -0.227851           -142.98
 EXCHANGE ENERGY                       EX=         -0.315270           -197.83
 REPULSION ENERGY                     REP=          0.665319            417.49
 POLARIZATION ENERGY                  POL=         -0.272493           -170.99
 ELECTRON CORRELATION                CORR=         -0.035635            -22.36
 TOTAL INTERACTION ENERGY               E=         -0.185929           -116.67
  

                     ***************************
                     END OF INTERACTION ANALYSIS
                     ***************************

              1301896  WORDS OF DYNAMIC MEMORY USED
 EXECUTION OF GAMESS TERMINATED NORMALLY 14:31:52 25-DEC-2023    
 DDI: 263640 bytes (0.3 MB / 0 MWords) used by master data server.

 ----------------------------------------
 CPU timing information for all processes
 ========================================
 0: 23.463 + 0.656 = 24.119
 1: 23.304 + 0.504 = 23.808
 2: 23.286 + 0.576 = 23.862
 3: 23.258 + 0.548 = 23.807
 4: 23.296 + 0.589 = 23.886
 5: 23.292 + 0.529 = 23.821
 6: 23.276 + 0.593 = 23.870
 7: 23.288 + 0.526 = 23.814
 8: 23.256 + 0.600 = 23.856
 9: 23.252 + 0.526 = 23.778
 10: 23.305 + 0.540 = 23.845
 11: 23.260 + 0.512 = 23.772
 12: 23.287 + 0.562 = 23.849
 13: 23.308 + 0.504 = 23.812
 14: 23.230 + 0.552 = 23.782
 15: 23.247 + 0.543 = 23.791
 ----------------------------------------
 ddikick.x: exited gracefully.
----- accounting info -----
Files used on the master node w014 were:
-rw-r--r-- 1 xacs0647 10000  2703863 Dec 25 14:31 /job_dir/21_1685745/21.dat
-rw-r--r-- 1 xacs0647 10000      243 Dec 25 14:31 /job_dir/21_1685745/21.err
-rw-r--r-- 1 xacs0647 10000      837 Dec 25 14:31 /job_dir/21_1685745/21.F05
-rw-r--r-- 1 xacs0647 10000 55084896 Dec 25 14:31 /job_dir/21_1685745/21.F08
-rw-r--r-- 1 xacs0647 10000 48784336 Dec 25 14:31 /job_dir/21_1685745/21.F08.001
-rw-r--r-- 1 xacs0647 10000 49864432 Dec 25 14:31 /job_dir/21_1685745/21.F08.002
-rw-r--r-- 1 xacs0647 10000 49324384 Dec 25 14:31 /job_dir/21_1685745/21.F08.003
-rw-r--r-- 1 xacs0647 10000 46444128 Dec 25 14:31 /job_dir/21_1685745/21.F08.004
-rw-r--r-- 1 xacs0647 10000 50224464 Dec 25 14:31 /job_dir/21_1685745/21.F08.005
-rw-r--r-- 1 xacs0647 10000 46264112 Dec 25 14:31 /job_dir/21_1685745/21.F08.006
-rw-r--r-- 1 xacs0647 10000 51844608 Dec 25 14:31 /job_dir/21_1685745/21.F08.007
-rw-r--r-- 1 xacs0647 10000 44823984 Dec 25 14:31 /job_dir/21_1685745/21.F08.008
-rw-r--r-- 1 xacs0647 10000 45724064 Dec 25 14:31 /job_dir/21_1685745/21.F08.009
-rw-r--r-- 1 xacs0647 10000 54544848 Dec 25 14:31 /job_dir/21_1685745/21.F08.010
-rw-r--r-- 1 xacs0647 10000 46084096 Dec 25 14:31 /job_dir/21_1685745/21.F08.011
-rw-r--r-- 1 xacs0647 10000 52924704 Dec 25 14:31 /job_dir/21_1685745/21.F08.012
-rw-r--r-- 1 xacs0647 10000 55444928 Dec 25 14:31 /job_dir/21_1685745/21.F08.013
-rw-r--r-- 1 xacs0647 10000 52384656 Dec 25 14:31 /job_dir/21_1685745/21.F08.014
-rw-r--r-- 1 xacs0647 10000 49324384 Dec 25 14:31 /job_dir/21_1685745/21.F08.015
-rw-r--r-- 1 xacs0647 10000  5758720 Dec 25 14:31 /job_dir/21_1685745/21.F10
-rw-r--r-- 1 xacs0647 10000      837 Dec 25 14:31 /job_dir/21_1685745/21.inp
-rw-r--r-- 1 xacs0647 10000  2403398 Dec 25 14:31 /job_dir/21_1685745/21.out
Mon Dec 25 14:31:55 CST 2023
0.097u 0.055s 0:27.73 0.5%	0+0k 0+32io 0pf+0w
