----- GAMESS execution script 'rungms' -----
This job is running on host w014
under operating system Linux at Mon Dec 25 14:31:27 CST 2023
Available scratch disk space (Kbyte units) at beginning of the job is
Filesystem              1K-blocks    Used Available Use% Mounted on
/dev/mapper/system-root 932514944 2755688 929759256   1% /
GAMESS temporary binary files will be written to /job_dir/22_1685746
GAMESS supplementary output files will be written to /job_dir/22_1685746
Copying input file ./22.inp to your run's scratch directory...
 
Assuming a single but multicore node.
 

 Distributed Data Interface kickoff program.
 Initiating 16 compute processes on 1 nodes to run the following command:
 /share/apps/xeda-apps/xeda-td/gamess.00.x 22 

          *******************************************************
          *                                                     *
          *          GAMESS VERSION = 30 SEP 2020 (R2)          *
          *                                                     *
          *              doi.org/10.1063/5.0005188              *
          *                                                     *
          **************** 64 BIT LINUX VERSION *****************

  GAMESS HAS BEEN MADE POSSIBLE WITH IMPORTANT CONTRIBUTIONS FROM
  THE FOLLOWING INDIVIDUALS (IN ALPHABETICAL ORDER):

     IVANA ADAMOVIC, CHRISTINE AIKENS, TOMOKO AKAMA,
     YURI ALEXEEV, YURIKO AOKI, POOJA ARORA, TOSHIO ASADA,
     ANDREY ASADCHEV, KIM K. BALDRIDGE, PRADIPTA BANDYOPADHYAY,
     MARIA BARYSZ, ROB BELL, JONATHAN BENTZ, COLLEEN BERTONI,
     JERRY A. BOATZ, BRETT BODE, KURT BRORSEN, KURT R. BRORSEN,
     LAIMUTIS BYTAUTAS, CALEB CARLIN, LAURA CARRINGTON,
     GALINA CHABAN, BENOIT CHAMPAGNE, WEI CHEN, MAHITO CHIBA,
     DAN CHIPMAN, CHEOL HO CHOI, TANNER CULPITT,
     DIPAYAN DATTA, PAUL DAY, ALBERT DEFUSCO,
     NUWAN DESILVA, J. EMILIANO DEUSTUA,
     TIM DUDLEY, MICHEL DUPUIS, STEVEN T. ELBERT,
     DMITRI FEDOROV, ALEX FINDLATER, GRAHAM FLETCHER,
     MARK FREITAG, CHRISTIAN FRIEDL, DAVID GARMER,
     IGOR S. GERASIMOV, KURT GLAESEMANN, MARK S. GORDON,
     JEFFREY GOUR, FENG LONG GU, EMILIE B. GUIDEZ,
     ANASTASIA GUNINA, SHARON HAMMES-SCHIFFER, MASATAKE HARUTA,
     KIMIHIKO HIRAO, YASUHIRO IKABATA, TZVETELIN IORDANOV,
     STEPHAN IRLE, KAZUYA ISHIMURA, JOE IVANIC, FRANK JENSEN,
     JAN H. JENSEN, VISVALDAS KAIRYS, MUNEAKI KAMIYA,
     MICHIO KATOUDA, NAOAKI KAWAKAMI, DAN KEMP, BERNARD KIRTMAN,
     KAZUO KITAURA, MARIUSZ KLOBUKOWSKI, MASATO KOBAYASHI,
     PRAKASHAN KORAMBATH, JACEK KORCHOWIEC, SHIRO KOSEKI,
     KAROL KOWALSKI, JIMMY KROMANN, STANISLAW KUCHARSKI,
     HENRY KURTZ, SAROM SOK LEANG, HUI LI, SHUHUA LI, WEI LI,
     JESSE LUTZ, ALEKSANDR O. LYKHIN, MARCIN MAKOWSKI,
     JOANI MATO, NIKITA MATSUNAGA, BENEDETTA MENNUCCI,
     GRANT MERRILL, NORIYUKI MINEZAWA, VLADIMIR MIRONOV,
     EISAKU MIYOSHI, JOHN A. MONTGOMERY JR., HIROTOSHI MORI,
     JONATHAN MULLIN, MONIKA MUSIAL, SHIGERU NAGASE,
     TAKESHI NAGATA, HIROMI NAKAI, TAKAHITO NAKAJIMA,
     YUYA NAKAJIMA, HARUYUKI NAKANO, HIROYA NAKATA, SEAN NEDD,
     HEATHER NETZLOFF, KIET A. NGUYEN, YOSHIO NISHIMOTO,
     BOSILJKA NJEGIC, RYAN OLSON, MIKE PAK, ROBERTO PEVERATI,
     BUU PHAM, PIOTR PIECUCH, ANNA POMOGAEVA, DAVID POOLE,
     SPENCER PRUITT, OLIVIER QUINET, LUKE ROSKOP,
     KLAUS RUEDENBERG, ANDREW SAND, TOSAPORN SATTASATHUCHANA,
     NOZOMI SAWADA, MICHAEL W. SCHMIDT, PATRICK E. SCHNEIDER,
     JUNJI SEINO, PRACHI SHARMA, JUN SHEN, JIM SHOEMAKER,
     YINAN SHU, DEJUN SI, JONATHAN SKONE, LYUDMILA SLIPCHENKO,
     TONY SMITH, JIE SONG, MARK SPACKMAN, CASPER STEINMANN,
     WALT STEVENS, PEIFENG SU, SHUJUN SU, CHET SWALINA,
     TETSUYA TAKETSUGU, ZHEN TAO, NANDUN THELLAMUREGE
     SEIKEN TOKURA, JACOPO TOMASI, TSUGUKI TOUMA, TAKAO TSUNEDA,
     HIROAKI UMEDA, JORGE LUIS GALVEZ VALLEJO, YALI WANG,
     SIMON WEBB, AARON WEST, THERESA L. WINDUS, MARTA WLOCH,
     PENG XU, KIYOSHI YAGI, SUSUMU YANAGISAWA, YANG YANG,
     SOOHAENG YOO, TAKESHI YOSHIKAWA, FEDERICO ZAHARIEV,
     TOBY ZENG

  WHO ARE SUPPORTED BY THEIR INSTITUTION/UNIVERSITY/COMPANY/GROUP
  (IN ALPHABETICAL ORDER):

     EP ANALYTICS, FACULTES UNIVERSITAIRES NOTRE-DAME DE LA PAIX,
     INSTITUTE FOR MOLECULAR SCIENCE, IOWA STATE UNIVERSITY,
     JACKSON STATE UNIVERSITY, JOHANNES KEPLER UNIVERSITY LINZ,
     KYUSHU UNIVERSITY, MICHIGAN STATE UNIVERSITY,
     MIE UNIVERSITY, MOSCOW STATE UNIVERSITY,
     N. COPERNICUS UNIVERSITY, NAGOYA UNIVERSITY,
     NANJING UNIVERSITY, NAT. INST. OF ADVANCED INDUSTRIAL
     SCIENCE AND TECHNOLOGY, NATIONAL INST. OF STANDARDS AND
     TECHNOLOGY, NESMEYANOV INSTITUTE OF ORGANOELEMENT COMPOUNDS
     OF RUSSIAN ACADEMY OF SCIENCES, OSAKA PREFECTURE UNIVERSITY,
     PENNSYLVANIA STATE UNIVERSITY, TOKYO INSTITUTE OF TECHNOLOGY,
     UNIVERSITY OF AARHUS, UNIVERSITY OF ALBERTA,
     UNIVERSITY OF CALIFORNIA AT SANTA BARBARA,
     UNIVERSITY OF COPENHAGEN, UNIVERSITY OF IOWA,
     UNIVERSITY OF MEMPHIS, UNIVERSITY OF MINNESOTA,
     UNIVERSITY OF NEBRASKA, UNIVERSITY OF NEW ENGLAND,
     UNIVERSITY OF NOTRE DAME, UNIVERSITY OF PISA,
     UNIVERSITY OF SILESIA, UNIVERSITY OF TOKYO,
     UNIVERSITY OF ZURICH, WASEDA UNIVERSITY, YALE UNIVERSITY

  GAMESS SOFTWARE MANAGEMENT TEAM FOR THIS RELEASE:
     MARK S. GORDON (TEAM LEAD),
     BRETT BODE (SENIOR ADVISOR),
     GIUSEPPE BARCA,
     COLLEEN BERTONI,
     KRISTOPHER KEIPERT (ADVISOR),
     SAROM S. LEANG (DEVELOPMENT LEAD),
     BUU PHAM,
     JORGE LUIS GALVEZ VALLEJO (WEBSITE ADMINISTRATOR),
     PENG XU


 PARALLEL VERSION RUNNING ON       16 PROCESSORS IN        1 NODES.

 EXECUTION OF GAMESS BEGUN 14:31:27 25-DEC-2023    

            ECHO OF THE FIRST FEW INPUT CARDS -
 INPUT CARD> $CONTRL SCFTYP=UHF RUNTYP=EDA dfttyp=B3LYP ispher=1 icharg=0 mult=1 $END       
 INPUT CARD> $SYSTEM  mwords=150 memddi=150 $END                                            
 INPUT CARD> $BASIS gbasis=accd $END                                                        
 INPUT CARD> $LMOEDA MATOM(1)=5 5 MCHARG(1)=0 0 MMULT(1)=2 -2 edatyp=gks $end               
 INPUT CARD> $scf DIIS=.TRUE. ETHRSH=2.0 SWDIIS=0.005 $end                                  
 INPUT CARD> $data                                                                          
 INPUT CARD> EDA calculation with XEDA 1.0                                                  
 INPUT CARD> c1                                                                             
 INPUT CARD>C   6   -0.2255540375    0.6799587241   -1.6851009426                           
 INPUT CARD>C   6   -0.2255540375    0.6799587241   -0.3293338596                           
 INPUT CARD>H   1   -0.1455723166    1.6325690130    0.2090551789                           
 INPUT CARD>H   1   -0.2818027082   -0.2474099567   -2.2638379172                           
 INPUT CARD>H   1   -0.1803974373    1.6066792935   -2.2618057351                           
 INPUT CARD>C   6   -0.2255540375   -0.5628385165    0.5040394665                           
 INPUT CARD>C   6    0.6370681467   -0.7868054776    1.5257212571                           
 INPUT CARD>H   1    1.3647673754   -0.0337817808    1.8443476899                           
 INPUT CARD>H   1    0.6376083111   -1.7253336210    2.0848287455                           
 INPUT CARD>H   1   -0.9231646572   -1.3550472061    0.2049289178                           
 INPUT CARD> $end                                                                           
  150000000 WORDS OF MEMORY AVAILABLE

     BASIS OPTIONS
     -------------
     GBASIS=ACCD         IGAUSS=       0      POLAR=NONE    
     NDFUNC=       0     NFFUNC=       0     DIFFSP=       F
     NPFUNC=       0      DIFFS=       F     BASNAM=        


     RUN TITLE
     ---------
  EDA calculation with XEDA 1.0                                                  

 THE POINT GROUP OF THE MOLECULE IS C1      
 THE ORDER OF THE PRINCIPAL AXIS IS     0

 ATOM      ATOMIC                      COORDINATES (BOHR)
           CHARGE         X                   Y                   Z
 C           6.0    -0.4262353263        1.2849356715       -3.1843790432
 C           6.0    -0.4262353263        1.2849356715       -0.6223507531
 H           1.0    -0.2750917898        3.0851080906        0.3950570044
 H           1.0    -0.5325299011       -0.4675370248       -4.2780333441
 H           1.0    -0.3409017254        3.0361836149       -4.2741930768
 C           6.0    -0.4262353263       -1.0636105715        0.9524964787
 C           6.0     1.2038842328       -1.4868467583        2.8831951096
 H           1.0     2.5790363765       -0.0638383091        3.4853117600
 H           1.0     1.2049049955       -3.2604077811        3.9397550603
 H           1.0    -1.7445282437       -2.5606679200        0.3872595016

          INTERNUCLEAR DISTANCES (ANGS.)
          ------------------------------

                1 C          2 C          3 H          4 H          5 H     

   1 C       0.0000000    1.3557671 *  2.1217188 *  1.0945835 *  1.0924461 *
   2 C       1.3557671 *  0.0000000    1.0971446 *  2.1460388 *  2.1436645 *
   3 H       2.1217188 *  1.0971446 *  0.0000000    3.1093536    2.4712419 *
   4 H       1.0945835 *  2.1460388 *  3.1093536    0.0000000    1.8568614 *
   5 H       1.0924461 *  2.1436645 *  2.4712419 *  1.8568614 *  0.0000000  
   6 C       2.5173162 *  1.4963476 *  2.2165800 *  2.7863604 *  3.5155009  
   7 C       3.6338538    2.5172890 *  2.8634784 *  3.9364997    4.5543803  
   8 H       3.9364394    2.7862949 *  2.7806533 *  4.4310291    4.6839239  
   9 H       4.5544319    3.5154888    3.9252272    4.6840663    5.5375694  
  10 H       2.8635856 *  2.2166070 *  3.0871536    2.7808299 *  3.9253416  

                6 C          7 C          8 H          9 H         10 H     

   1 C       2.5173162 *  3.6338538    3.9364394    4.5544319    2.8635856 *
   2 C       1.4963476 *  2.5172890 *  2.7862949 *  3.5154888    2.2166070 *
   3 H       2.2165800 *  2.8634784 *  2.7806533 *  3.9252272    3.0871536  
   4 H       2.7863604 *  3.9364997    4.4310291    4.6840663    2.7808299 *
   5 H       3.5155009    4.5543803    4.6839239    5.5375694    3.9253416  
   6 C       0.0000000    1.3557699 *  2.1460311 *  2.1436741 *  1.0971428 *
   7 C       1.3557699 *  0.0000000    1.0945838 *  1.0924452 *  2.1217251 *
   8 H       2.1460311 *  1.0945838 *  0.0000000    1.8568627 *  3.1093519  
   9 H       2.1436741 *  1.0924452 *  1.8568627 *  0.0000000    2.4712644 *
  10 H       1.0971428 *  2.1217251 *  3.1093519    2.4712644 *  0.0000000  

  * ... LESS THAN  3.000


     ATOMIC BASIS SET
     ----------------
 THE CONTRACTED PRIMITIVE FUNCTIONS HAVE BEEN UNNORMALIZED
 THE CONTRACTED BASIS FUNCTIONS ARE NOW NORMALIZED TO UNITY

  SHELL TYPE  PRIMITIVE        EXPONENT          CONTRACTION COEFFICIENT(S)

 C         

      1   S       1          6665.0000000    0.000691583963
      1   S       2          1000.0000000    0.005325796153
      1   S       3           228.0000000    0.027060721042
      1   S       4            64.7100000    0.101656846141
      1   S       5            21.0600000    0.274574823617
      1   S       6             7.4950000    0.448294318924
      1   S       7             2.7970000    0.284902610715
      1   S       8             0.5215000    0.015194859206

      2   S       9          6665.0000000   -0.000293269653
      2   S      10          1000.0000000   -0.002318035474
      2   S      11           228.0000000   -0.011499786039
      2   S      12            64.7100000   -0.046826727010
      2   S      13            21.0600000   -0.128466168750
      2   S      14             7.4950000   -0.301266272463
      2   S      15             2.7970000   -0.255630702330
      2   S      16             0.5215000    1.093793361012

      3   S      17             0.1596000    1.000000000000

      4   P      18             9.4390000    0.056979251590
      4   P      19             2.0020000    0.313207211501
      4   P      20             0.5456000    0.760376741738

      5   P      21             0.1517000    1.000000000000

      6   D      22             0.5500000    1.000000000000

      7   S      23             0.0469000    1.000000000000

      8   P      24             0.0404100    1.000000000000

      9   D      25             0.1510000    1.000000000000

 C         

     10   S      26          6665.0000000    0.000691583963
     10   S      27          1000.0000000    0.005325796153
     10   S      28           228.0000000    0.027060721042
     10   S      29            64.7100000    0.101656846141
     10   S      30            21.0600000    0.274574823617
     10   S      31             7.4950000    0.448294318924
     10   S      32             2.7970000    0.284902610715
     10   S      33             0.5215000    0.015194859206

     11   S      34          6665.0000000   -0.000293269653
     11   S      35          1000.0000000   -0.002318035474
     11   S      36           228.0000000   -0.011499786039
     11   S      37            64.7100000   -0.046826727010
     11   S      38            21.0600000   -0.128466168750
     11   S      39             7.4950000   -0.301266272463
     11   S      40             2.7970000   -0.255630702330
     11   S      41             0.5215000    1.093793361012

     12   S      42             0.1596000    1.000000000000

     13   P      43             9.4390000    0.056979251590
     13   P      44             2.0020000    0.313207211501
     13   P      45             0.5456000    0.760376741738

     14   P      46             0.1517000    1.000000000000

     15   D      47             0.5500000    1.000000000000

     16   S      48             0.0469000    1.000000000000

     17   P      49             0.0404100    1.000000000000

     18   D      50             0.1510000    1.000000000000

 H         

     19   S      51            13.0100000    0.033498726390
     19   S      52             1.9620000    0.234800801174
     19   S      53             0.4446000    0.813682957883

     20   S      54             0.1220000    1.000000000000

     21   P      55             0.7270000    1.000000000000

     22   S      56             0.0297400    1.000000000000

     23   P      57             0.1410000    1.000000000000

 H         

     24   S      58            13.0100000    0.033498726390
     24   S      59             1.9620000    0.234800801174
     24   S      60             0.4446000    0.813682957883

     25   S      61             0.1220000    1.000000000000

     26   P      62             0.7270000    1.000000000000

     27   S      63             0.0297400    1.000000000000

     28   P      64             0.1410000    1.000000000000

 H         

     29   S      65            13.0100000    0.033498726390
     29   S      66             1.9620000    0.234800801174
     29   S      67             0.4446000    0.813682957883

     30   S      68             0.1220000    1.000000000000

     31   P      69             0.7270000    1.000000000000

     32   S      70             0.0297400    1.000000000000

     33   P      71             0.1410000    1.000000000000

 C         

     34   S      72          6665.0000000    0.000691583963
     34   S      73          1000.0000000    0.005325796153
     34   S      74           228.0000000    0.027060721042
     34   S      75            64.7100000    0.101656846141
     34   S      76            21.0600000    0.274574823617
     34   S      77             7.4950000    0.448294318924
     34   S      78             2.7970000    0.284902610715
     34   S      79             0.5215000    0.015194859206

     35   S      80          6665.0000000   -0.000293269653
     35   S      81          1000.0000000   -0.002318035474
     35   S      82           228.0000000   -0.011499786039
     35   S      83            64.7100000   -0.046826727010
     35   S      84            21.0600000   -0.128466168750
     35   S      85             7.4950000   -0.301266272463
     35   S      86             2.7970000   -0.255630702330
     35   S      87             0.5215000    1.093793361012

     36   S      88             0.1596000    1.000000000000

     37   P      89             9.4390000    0.056979251590
     37   P      90             2.0020000    0.313207211501
     37   P      91             0.5456000    0.760376741738

     38   P      92             0.1517000    1.000000000000

     39   D      93             0.5500000    1.000000000000

     40   S      94             0.0469000    1.000000000000

     41   P      95             0.0404100    1.000000000000

     42   D      96             0.1510000    1.000000000000

 C         

     43   S      97          6665.0000000    0.000691583963
     43   S      98          1000.0000000    0.005325796153
     43   S      99           228.0000000    0.027060721042
     43   S     100            64.7100000    0.101656846141
     43   S     101            21.0600000    0.274574823617
     43   S     102             7.4950000    0.448294318924
     43   S     103             2.7970000    0.284902610715
     43   S     104             0.5215000    0.015194859206

     44   S     105          6665.0000000   -0.000293269653
     44   S     106          1000.0000000   -0.002318035474
     44   S     107           228.0000000   -0.011499786039
     44   S     108            64.7100000   -0.046826727010
     44   S     109            21.0600000   -0.128466168750
     44   S     110             7.4950000   -0.301266272463
     44   S     111             2.7970000   -0.255630702330
     44   S     112             0.5215000    1.093793361012

     45   S     113             0.1596000    1.000000000000

     46   P     114             9.4390000    0.056979251590
     46   P     115             2.0020000    0.313207211501
     46   P     116             0.5456000    0.760376741738

     47   P     117             0.1517000    1.000000000000

     48   D     118             0.5500000    1.000000000000

     49   S     119             0.0469000    1.000000000000

     50   P     120             0.0404100    1.000000000000

     51   D     121             0.1510000    1.000000000000

 H         

     52   S     122            13.0100000    0.033498726390
     52   S     123             1.9620000    0.234800801174
     52   S     124             0.4446000    0.813682957883

     53   S     125             0.1220000    1.000000000000

     54   P     126             0.7270000    1.000000000000

     55   S     127             0.0297400    1.000000000000

     56   P     128             0.1410000    1.000000000000

 H         

     57   S     129            13.0100000    0.033498726390
     57   S     130             1.9620000    0.234800801174
     57   S     131             0.4446000    0.813682957883

     58   S     132             0.1220000    1.000000000000

     59   P     133             0.7270000    1.000000000000

     60   S     134             0.0297400    1.000000000000

     61   P     135             0.1410000    1.000000000000

 H         

     62   S     136            13.0100000    0.033498726390
     62   S     137             1.9620000    0.234800801174
     62   S     138             0.4446000    0.813682957883

     63   S     139             0.1220000    1.000000000000

     64   P     140             0.7270000    1.000000000000

     65   S     141             0.0297400    1.000000000000

     66   P     142             0.1410000    1.000000000000

 TOTAL NUMBER OF BASIS SET SHELLS             =   66
 NUMBER OF CARTESIAN GAUSSIAN BASIS FUNCTIONS =  154
 NOTE: THIS RUN WILL RESTRICT THE MO VARIATION SPACE TO SPHERICAL HARMONICS.
 THE NUMBER OF ORBITALS KEPT IN THE VARIATIONAL SPACE WILL BE PRINTED LATER.
 NUMBER OF ELECTRONS                          =   30
 CHARGE OF MOLECULE                           =    0
 SPIN MULTIPLICITY                            =    1
 NUMBER OF OCCUPIED ORBITALS (ALPHA)          =   15
 NUMBER OF OCCUPIED ORBITALS (BETA )          =   15
 TOTAL NUMBER OF ATOMS                        =   10
 THE NUCLEAR REPULSION ENERGY IS      102.3045931219

 SELECTED MURRAY-HANDY-LAMING RADIAL GRID

 LEGACY BECKE'S FUZZY CELL METHOD

 SELECTED ORIGINAL BECKE'S PARTITION FUNCTION

     LEBEDEV GRID-BASED DFT OPTIONS
     ------------------------------
     DFTTYP=B3LYP   
     NRAD  =      96     NLEB  =     302
     NRAD0 =      24     NLEB0 =     110
     SWOFF =    5.00E-03 (PURE SCF -> DFT)
     SWITCH=    3.00E-04 (COARSE -> TIGHT GRID)
     THRESH=    0.00E+00 GTHRE=    1.00E+00

 GRIMME'S EMPIRICAL DISPERSION CORRECTION= F

     $CONTRL OPTIONS
     ---------------
 SCFTYP=UHF          RUNTYP=LMOEDA       EXETYP=RUN     
 MPLEVL=       0     CITYP =NONE         CCTYP =NONE         VBTYP =NONE    
 DFTTYP=B3LYP        TDDFT =NONE    
 MULT  =       1     ICHARG=       0     NZVAR =       0     COORD =UNIQUE  
 PP    =NONE         RELWFN=NONE         LOCAL =NONE         NUMGRD=       F
 ISPHER=       1     NOSYM =       0     MAXIT =      30     UNITS =ANGS    
 PLTORB=       F     MOLPLT=       F     AIMPAC=       F     FRIEND=        
 NPRINT=       7     IREST =       0     GEOM  =INPUT   
 NORMF =       0     NORMP =       0     ITOL  =      20     ICUT  =       9
 INTTYP=BEST         GRDTYP=BEST         QMTTOL= 1.0E-06

     $SYSTEM OPTIONS
     ---------------
  REPLICATED MEMORY=   150000000 WORDS (ON EVERY NODE).
 DISTRIBUTED MEMDDI=         150 MILLION WORDS IN AGGREGATE,
 MEMDDI DISTRIBUTED OVER  16 PROCESSORS IS     9375000 WORDS/PROCESSOR.
 TOTAL MEMORY REQUESTED ON EACH PROCESSOR=   159375000 WORDS.
 TIMLIM=      525600.00 MINUTES, OR     365.0 DAYS.
 PARALL= T  BALTYP=  DLB     KDIAG=    0  COREFL= F
 MXSEQ2=     300 MXSEQ3=     150  mem10=         0  mem22=         0

 Using Gaussians for PCM contribution to MEP, params: 0.10000E+01 0.10000E-07

          ----------------
          PROPERTIES INPUT
          ----------------

     MOMENTS            FIELD           POTENTIAL          DENSITY
 IEMOM =       1   IEFLD =       0   IEPOT =       0   IEDEN =       0
 WHERE =COMASS     WHERE =NUCLEI     WHERE =NUCLEI     WHERE =NUCLEI  
 OUTPUT=BOTH       OUTPUT=BOTH       OUTPUT=BOTH       OUTPUT=BOTH    
 IEMINT=       0   IEFINT=       0                     IEDINT=       0
                                                       MORB  =       0
          EXTRAPOLATION IN EFFECT
          DIIS IN EFFECT
          DIIS or SOSCF will be reset if energy rises
 ORBITAL PRINTING OPTION: NPREO=     1   154     2     1

     -------------------------------
     INTEGRAL TRANSFORMATION OPTIONS
     -------------------------------
     NWORD  =            0
     CUTOFF = 1.0E-09     MPTRAN =       0
     DIRTRF =       F     AOINTS =DUP     

          -----------------------------
          LOCALIZATION INPUT PARAMETERS
          -----------------------------
           LOCAL=RUEDNBRG      NOUTA=       0
          PRTLOC=       F      NOUTB=       0
          MAXLOC=     250     CVGLOC=1.00E-06
           FCORE=       F     SYMLOC=       F
          MOIDON=       F     EDCOMP=       F
          DIPDCM=       F      NPROT=       0
          QADDCM=       F     DEPRNT=       F
          POLNUM=       F     ORIENT=       F
          POLDYN=       F      VMTOL=1.50E-01
          NPRDTL=       2     IBOYAL=       1

          ----------------------
          INTEGRAL INPUT OPTIONS
          ----------------------
 NOPK  =       1 NORDER=       0 SCHWRZ=       T

     ------------------------------------------
     THE POINT GROUP IS C1 , NAXIS= 0, ORDER= 1
     ------------------------------------------

 -- VARIATIONAL SPACE WILL BE RESTRICTED TO PURE SPHERICAL HARMONICS ONLY --
 AFTER EXCLUDING CONTAMINANT COMBINATIONS FROM THE CARTESIAN GAUSSIAN BASIS
 SET, THE NUMBER OF SPHERICAL HARMONICS KEPT IN THE VARIATION SPACE IS  146

     DIMENSIONS OF THE SYMMETRY SUBSPACES ARE
 A   =  146

 ..... DONE SETTING UP THE RUN .....
 CPU     0: STEP CPU TIME=     0.03 TOTAL CPU TIME=          0.0 (      0.0 MIN)
 TOTAL WALL CLOCK TIME=          0.0 SECONDS, CPU UTILIZATION IS    83.14%

          --------------
          GKSEDA OPTIONS
          --------------
          NMOL  =       2          EDATYP=GKS     
          SUPBAS=       T          RDVECM=       F          ITRTN =       T

 *******************
 GKSEDA IS BEGINNING
 *******************

 NMOL =  2

 MONOMER     ATOM   CHARGE ELECTRON MULTIPLE
 -------------------------------------------
       1        5        0       15        2
       2        5        0       15       -2
 -------------------------------------------

 SAVING MOL INFO REQUIRES    598670 WORDS OF MEMORY.

          ********************
          1 ELECTRON INTEGRALS
          ********************
 ...... END OF ONE-ELECTRON INTEGRALS ......
 CPU     0: STEP CPU TIME=     0.01 TOTAL CPU TIME=          0.0 (      0.0 MIN)
 TOTAL WALL CLOCK TIME=          0.0 SECONDS, CPU UTILIZATION IS    84.67%

          -------------
          GUESS OPTIONS
          -------------
          GUESS =HUCKEL            NORB  =       0          NORDER=       0
          MIX   =       F          PRTMO =       F          PUNMO =       F
          TOLZ  = 1.0E-08          TOLE  = 1.0E-05
          SYMDEN=       F          PURIFY=       F

 INITIAL GUESS ORBITALS GENERATED BY HUCKEL   ROUTINE.
 HUCKEL GUESS REQUIRES    180842 WORDS.

 STATISTICS FOR GENERATION OF SYMMETRY ORBITAL -Q- MATRIX
 NUMBER OF CARTESIAN ATOMIC ORBITALS=        154
 NUMBER OF SPHERICAL CONTAMINANTS DROPPED=     8
 NUMBER OF LINEARLY DEPENDENT MOS DROPPED=     0
 TOTAL NUMBER OF MOS IN VARIATION SPACE=     146

 SYMMETRIES FOR INITIAL GUESS ORBITALS FOLLOW.  ALPHA SET(S).
    15 ORBITALS ARE OCCUPIED (    4 CORE ORBITALS).
     5=A        6=A        7=A        8=A        9=A       10=A       11=A   
    12=A       13=A       14=A       15=A       16=A       17=A       18=A   
    19=A       20=A       21=A       22=A       23=A       24=A       25=A   

 SYMMETRIES FOR INITIAL GUESS ORBITALS FOLLOW.   BETA SET(S).
    15 ORBITALS ARE OCCUPIED (    4 CORE ORBITALS).
     5=A        6=A        7=A        8=A        9=A       10=A       11=A   
    12=A       13=A       14=A       15=A       16=A       17=A       18=A   
    19=A       20=A       21=A       22=A       23=A       24=A       25=A   
 ...... END OF INITIAL ORBITAL SELECTION ......
 CPU     0: STEP CPU TIME=     0.01 TOTAL CPU TIME=          0.1 (      0.0 MIN)
 TOTAL WALL CLOCK TIME=          0.1 SECONDS, CPU UTILIZATION IS    88.25%

          -------------------------
          MONOMER  1 WITH OWN BASIS
          -------------------------

     ------------------------------------------
     THE POINT GROUP IS C1 , NAXIS= 0, ORDER= 1
     ------------------------------------------

 -- VARIATIONAL SPACE WILL BE RESTRICTED TO PURE SPHERICAL HARMONICS ONLY --
 AFTER EXCLUDING CONTAMINANT COMBINATIONS FROM THE CARTESIAN GAUSSIAN BASIS
 SET, THE NUMBER OF SPHERICAL HARMONICS KEPT IN THE VARIATION SPACE IS   73

     DIMENSIONS OF THE SYMMETRY SUBSPACES ARE
 A   =   73

          ********************
          1 ELECTRON INTEGRALS
          ********************
 ...... END OF ONE-ELECTRON INTEGRALS ......
 CPU     0: STEP CPU TIME=     0.01 TOTAL CPU TIME=          0.1 (      0.0 MIN)
 TOTAL WALL CLOCK TIME=          0.1 SECONDS, CPU UTILIZATION IS    89.00%

          -------------
          GUESS OPTIONS
          -------------
          GUESS =HUCKEL            NORB  =       0          NORDER=       0
          MIX   =       F          PRTMO =       F          PUNMO =       F
          TOLZ  = 1.0E-08          TOLE  = 1.0E-05
          SYMDEN=       F          PURIFY=       F

 INITIAL GUESS ORBITALS GENERATED BY HUCKEL   ROUTINE.
 HUCKEL GUESS REQUIRES     47410 WORDS.

 STATISTICS FOR GENERATION OF SYMMETRY ORBITAL -Q- MATRIX
 NUMBER OF CARTESIAN ATOMIC ORBITALS=         77
 NUMBER OF SPHERICAL CONTAMINANTS DROPPED=     4
 NUMBER OF LINEARLY DEPENDENT MOS DROPPED=     0
 TOTAL NUMBER OF MOS IN VARIATION SPACE=      73

 SYMMETRIES FOR INITIAL GUESS ORBITALS FOLLOW.  ALPHA SET(S).
     8 ORBITALS ARE OCCUPIED (    2 CORE ORBITALS).
     3=A        4=A        5=A        6=A        7=A        8=A        9=A   
    10=A       11=A       12=A       13=A       14=A       15=A       16=A   
    17=A       18=A   

 SYMMETRIES FOR INITIAL GUESS ORBITALS FOLLOW.   BETA SET(S).
     7 ORBITALS ARE OCCUPIED (    2 CORE ORBITALS).
     3=A        4=A        5=A        6=A        7=A        8=A        9=A   
    10=A       11=A       12=A       13=A       14=A       15=A       16=A   
    17=A   
 ...... END OF INITIAL ORBITAL SELECTION ......
 CPU     0: STEP CPU TIME=     0.00 TOTAL CPU TIME=          0.1 (      0.0 MIN)
 TOTAL WALL CLOCK TIME=          0.1 SECONDS, CPU UTILIZATION IS    89.46%

                    ----------------------
                    AO INTEGRAL TECHNOLOGY
                    ----------------------
     S,P,L SHELL ROTATED AXIS INTEGRALS, REPROGRAMMED BY
        KAZUYA ISHIMURA (IMS) AND JOSE SIERRA (SYNSTAR).
     S,P,D,L SHELL ROTATED AXIS INTEGRALS PROGRAMMED BY
        KAZUYA ISHIMURA (INSTITUTE FOR MOLECULAR SCIENCE).
     S,P,D,F,G SHELL TO TOTAL QUARTET ANGULAR MOMENTUM SUM 5,
        ERIC PROGRAM BY GRAHAM FLETCHER (ELORET AND NASA ADVANCED
        SUPERCOMPUTING DIVISION, AMES RESEARCH CENTER).
     S,P,D,F,G,L SHELL GENERAL RYS QUADRATURE PROGRAMMED BY
        MICHEL DUPUIS (PACIFIC NORTHWEST NATIONAL LABORATORY).

          --------------------
          2 ELECTRON INTEGRALS
          --------------------

 THE -PK- OPTION IS OFF, THE INTEGRALS ARE NOT IN SUPERMATRIX FORM.
 STORING   15000 INTEGRALS/RECORD ON DISK, USING 12 BYTES/INTEGRAL.
 TWO ELECTRON INTEGRAL EVALUATION REQUIRES   90957 WORDS OF MEMORY.
 SCHWARZ INEQUALITY OVERHEAD:      3003 INTEGRALS, T=        0.00
 II,JST,KST,LST =  1  1  1  1 NREC =         1 INTLOC =    1
 II,JST,KST,LST =  2  1  1  1 NREC =         1 INTLOC =    1
 II,JST,KST,LST =  3  1  1  1 NREC =         1 INTLOC =    1
 II,JST,KST,LST =  4  1  1  1 NREC =         1 INTLOC =    1
 II,JST,KST,LST =  5  1  1  1 NREC =         1 INTLOC =    1
 II,JST,KST,LST =  6  1  1  1 NREC =         1 INTLOC =    1
 II,JST,KST,LST =  7  1  1  1 NREC =         1 INTLOC =    4
 II,JST,KST,LST =  8  1  1  1 NREC =         1 INTLOC =  250
 II,JST,KST,LST =  9  1  1  1 NREC =         1 INTLOC =  250
 II,JST,KST,LST = 10  1  1  1 NREC =         1 INTLOC =  250
 II,JST,KST,LST = 11  1  1  1 NREC =         1 INTLOC =  517
 II,JST,KST,LST = 12  1  1  1 NREC =         1 INTLOC =  517
 II,JST,KST,LST = 13  1  1  1 NREC =         1 INTLOC =  517
 II,JST,KST,LST = 14  1  1  1 NREC =         1 INTLOC =  517
 II,JST,KST,LST = 15  1  1  1 NREC =         1 INTLOC = 1663
 II,JST,KST,LST = 16  1  1  1 NREC =         1 INTLOC =11330
 II,JST,KST,LST = 17  1  1  1 NREC =         1 INTLOC =11330
 II,JST,KST,LST = 18  1  1  1 NREC =         1 INTLOC =11330
 II,JST,KST,LST = 19  1  1  1 NREC =         2 INTLOC = 2547
 II,JST,KST,LST = 20  1  1  1 NREC =         2 INTLOC = 2547
 II,JST,KST,LST = 21  1  1  1 NREC =         2 INTLOC = 5048
 II,JST,KST,LST = 22  1  1  1 NREC =         4 INTLOC =  580
 II,JST,KST,LST = 23  1  1  1 NREC =         4 INTLOC =  580
 II,JST,KST,LST = 24  1  1  1 NREC =         8 INTLOC = 9298
 II,JST,KST,LST = 25  1  1  1 NREC =         8 INTLOC = 9298
 II,JST,KST,LST = 26  1  1  1 NREC =         9 INTLOC =10844
 II,JST,KST,LST = 27  1  1  1 NREC =        12 INTLOC = 3553
 II,JST,KST,LST = 28  1  1  1 NREC =        13 INTLOC = 8741
 II,JST,KST,LST = 29  1  1  1 NREC =        17 INTLOC =14278
 II,JST,KST,LST = 30  1  1  1 NREC =        18 INTLOC =12322
 II,JST,KST,LST = 31  1  1  1 NREC =        19 INTLOC =14792
 II,JST,KST,LST = 32  1  1  1 NREC =        22 INTLOC = 5670
 II,JST,KST,LST = 33  1  1  1 NREC =        22 INTLOC =12985
 SCHWARZ INEQUALITY TEST SKIPPED           0 INTEGRAL BLOCKS.
 TOTAL NUMBER OF NONZERO TWO-ELECTRON INTEGRALS =             3901241
        268 INTEGRAL RECORDS WERE STORED ON DISK FILE  8.
  ...... END OF TWO-ELECTRON INTEGRALS .....
 CPU     0: STEP CPU TIME=     0.03 TOTAL CPU TIME=          0.1 (      0.0 MIN)
 TOTAL WALL CLOCK TIME=          0.1 SECONDS, CPU UTILIZATION IS    90.20%

          ---------------------------
              U-B3LYP SCF CALCULATION
          ---------------------------

     NUCLEAR ENERGY =        27.8787889637
     MAXIT = 30     NPUNCH=  2     MULT=  2
     EXTRAP=T  DAMP=F  SHIFT=F  RSTRCT=F  DIIS=T  SOSCF=T
         DENSITY MATRIX CONVERGENCE THRESHOLD=  1.00E-05
     COARSE -> FINE DFT GRID SWITCH THRESHOLD=  3.00E-04 (SWITCH IN $DFT)
                   HF -> DFT SWITCH THRESHOLD=  5.00E-03 (SWOFF IN $DFT)
     SOSCF WILL OPTIMIZE     520 ALPHA AND     462 BETA ROTATION ANGLES.
     SOGTOL= 2.500E-01
     MEMORY REQUIRED FOR UHF/ROHF ITERS=    298732 WORDS.

     EXCHANGE FUNCTIONAL   =B88&HFX   
     CORRELATION FUNCTIONAL=LYP88&VWN5
     DFT THRESHOLD         =.690E-08
     GRID CHANGE THRESHOLD =.300E-03
 FOR AN EULER-MACLAURIN QUADRATURE USING  96 RADIAL POINTS:
 SMALLEST GAUSSIAN PRIMITIVE EXPONENT=        0.0297400000 OF TYPE -S-
 ON ATOM NUMBER   3 HAS RADIAL NORMALIZATION=  1.000000
  LARGEST GAUSSIAN PRIMITIVE EXPONENT=     6665.0000000000 OF TYPE -S-
 ON ATOM NUMBER   1 HAS RADIAL NORMALIZATION=  1.000000
 DFT IS SWITCHED OFF, PERFORMING PURE SCF UNTIL SWOFF THRESHOLD IS REACHED.

 ITER EX      TOTAL ENERGY        E CHANGE  DENSITY CHANGE    DIIS ERROR
          * * *   INITIATING DIIS PROCEDURE   * * *
   1  0      -77.1747096954   -77.1747096954   0.500517761   0.356980356
   2  1      -77.3687518849    -0.1940421895   0.154956248   0.054159901
   3  2      -77.3848005945    -0.0160487096   0.031186157   0.025987401
   4  3      -77.3892079591    -0.0044073646   0.022029922   0.011200460
   5  4      -77.3905957698    -0.0013878107   0.012864245   0.008542415
   6  5      -77.3912428288    -0.0006470590   0.024440000   0.008534827
   7  6      -77.3923114212    -0.0010685924   0.064419005   0.008277146
   8  7      -77.3946863586    -0.0023749374   0.109298342   0.006383618
   9  8      -77.3962062549    -0.0015198963   0.065055362   0.001939256
  10  9      -77.3958013758     0.0004048791   0.041454690   0.003991820
  11 10      -77.3962719595    -0.0004705838   0.006067899   0.000661135
  12 11      -77.3962840298    -0.0000120703   0.001208913   0.000118982
 CONVERGED TO SWOFF, SO DFT CALCULATION IS NOW SWITCHED ON.
          * * *   INITIATING DIIS PROCEDURE   * * *
  13 12      -77.8301726316    -0.4338886018   0.394472603   0.062322254
  14 13      -77.8467559331    -0.0165833015   0.062484990   0.016710427
  15 14      -77.8494292150    -0.0026732819   0.024701976   0.012035553
  16 15      -77.8508849393    -0.0014557243   0.050368740   0.007362305
  17 16      -77.8518621094    -0.0009771701   0.009053461   0.003343618
  18 17      -77.8519422025    -0.0000800931   0.005905739   0.001421312
  19 18      -77.8519618564    -0.0000196538   0.002002398   0.000278993
         SWDIIS THRESHOLD HAS BEEN REACHED: SWITCHING DIIS OFF.
          ---------------START SECOND ORDER SCF---------------
  20 19      -77.8519630013    -0.0000011449   0.000136619   0.000022292
  21 20      -77.8519630136    -0.0000000124   0.000155521   0.000023165
  22 21      -77.8519630143    -0.0000000007   0.000065517   0.000021330
  23 22      -77.8519630185    -0.0000000042   0.000008543   0.000002352
  24 23      -77.8519630187    -0.0000000001   0.000012183   0.000001901

          ----------------
          ENERGY CONVERGED
          ----------------
     TIME TO FORM FOCK OPERATORS=       1.2 SECONDS (       0.1 SEC/ITER)
     TIME TO SOLVE SCF EQUATIONS=       0.1 SECONDS (       0.0 SEC/ITER)

 FINAL U-B3LYP ENERGY IS      -77.8519630187 AFTER  24 ITERATIONS
 DFT EXCHANGE + CORRELATION ENERGY =        -9.5249640274
 TOTAL ELECTRON NUMBER             =        14.9999662470

          --------------------
          SPIN SZ   =    0.500
          S-SQUARED =    0.764
          --------------------

  ----- ALPHA SET ----- 

          ------------
          EIGENVECTORS
          ------------

                      1          2          3          4          5
                  -10.2290   -10.2019    -0.7671    -0.5781    -0.4644
                     A          A          A          A          A   
    1  C  1  S    0.012219   1.009649  -0.019675   0.011345  -0.002199
    2  C  1  S   -0.001519   0.022157   0.316322  -0.227084   0.000303
    3  C  1  S    0.040263  -0.073352   0.095905  -0.324857  -0.035502
    4  C  1  X    0.000001  -0.000026   0.000067   0.003553   0.019071
    5  C  1  Y   -0.000024  -0.000001   0.007997   0.030903   0.339570
    6  C  1  Z   -0.001008  -0.000345   0.110830   0.207438  -0.210758
    7  C  1  X   -0.000111   0.000038   0.001756   0.001383  -0.000050
    8  C  1  Y   -0.001377  -0.000304   0.023394   0.027565  -0.015249
    9  C  1  Z    0.038639  -0.008996  -0.029150  -0.243478   0.040087
   10  C  1 XX    0.000220  -0.001619  -0.006300   0.001461  -0.001723
   11  C  1 YY    0.000857   0.000820  -0.007589  -0.011252   0.008576
   12  C  1 ZZ   -0.001077   0.000800   0.013888   0.009791  -0.006853
   13  C  1 XY    0.000039   0.000156  -0.000070  -0.000842   0.000460
   14  C  1 XZ    0.000033   0.000014  -0.000037   0.000249  -0.000135
   15  C  1 YZ    0.000475   0.000053   0.000201   0.002336  -0.005993
   16  C  1  S    0.015305  -0.033918   0.016735   0.138493  -0.061270
   17  C  1  X    0.000063   0.000069  -0.000230   0.000627  -0.003116
   18  C  1  Y    0.000759   0.000808  -0.003832   0.009104  -0.058274
   19  C  1  Z    0.006226  -0.003679  -0.001865   0.011792  -0.009210
   20  C  1 XX   -0.002134   0.004864   0.006293  -0.006730  -0.006402
   21  C  1 YY   -0.004451   0.001542  -0.008029   0.105636  -0.045109
   22  C  1 ZZ    0.006585  -0.006407   0.001735  -0.098906   0.051511
   23  C  1 XY   -0.000162  -0.000223  -0.000541   0.007784  -0.001308
   24  C  1 XZ   -0.000226  -0.000104   0.001527   0.000795   0.005826
   25  C  1 YZ   -0.003141  -0.001097   0.024591   0.019549   0.104352
   26  C  2  S    1.009988  -0.013801  -0.017147  -0.006468  -0.000335
   27  C  2  S    0.022733  -0.001376   0.307221   0.268791  -0.070161
   28  C  2  S   -0.089903   0.024611   0.253045   0.494316  -0.242242
   29  C  2  X    0.000094   0.000007   0.002379   0.009003   0.017250
   30  C  2  Y    0.000898   0.000105   0.024382   0.097130   0.255358
   31  C  2  Z   -0.000222   0.000917  -0.128388   0.119016   0.165179
   32  C  2  X   -0.000306  -0.000087  -0.004372  -0.006149   0.000093
   33  C  2  Y   -0.003185  -0.001123  -0.057199  -0.093187   0.008242
   34  C  2  Z    0.030713  -0.016922  -0.091128  -0.221453   0.063494
   35  C  2 XX   -0.000849   0.000674  -0.011424  -0.001378  -0.000429
   36  C  2 YY    0.000510   0.000641  -0.003944   0.009778   0.005736
   37  C  2 ZZ    0.000339  -0.001316   0.015368  -0.008401  -0.005307
   38  C  2 XY    0.000120   0.000003   0.000398   0.000888   0.000756
   39  C  2 XZ    0.000080   0.000006  -0.000384  -0.000000  -0.000349
   40  C  2 YZ    0.000886   0.000042  -0.006159  -0.001610  -0.009620
   41  C  2  S   -0.029083   0.019769  -0.019140  -0.118576   0.022764
   42  C  2  X   -0.000112  -0.000109  -0.000131  -0.002149   0.000863
   43  C  2  Y   -0.001407  -0.001329  -0.000236  -0.026848   0.017897
   44  C  2  Z    0.004244  -0.005761   0.006694   0.004884  -0.013547
   45  C  2 XX    0.005984  -0.001056  -0.006910   0.005913   0.001044
   46  C  2 YY    0.004310  -0.001754  -0.017612  -0.059546  -0.008296
   47  C  2 ZZ   -0.010294   0.002810   0.024522   0.053633   0.007252
   48  C  2 XY   -0.000142  -0.000053  -0.001555  -0.005596  -0.001641
   49  C  2 XZ   -0.000343  -0.000098   0.000472  -0.001881   0.000411
   50  C  2 YZ   -0.004260  -0.001173   0.008541  -0.022059   0.013203
   51  H  3  S   -0.000661  -0.000102   0.124197   0.258620   0.195608
   52  H  3  S    0.021400   0.007236   0.064857   0.272853   0.109768
   53  H  3  X    0.000141  -0.000006  -0.001041  -0.001490  -0.000682
   54  H  3  Y    0.001712  -0.000007  -0.012719  -0.016753  -0.005925
   55  H  3  Z    0.000737   0.000184  -0.011296  -0.009975  -0.005279
   56  H  3  S    0.001298   0.001929   0.003496   0.025913   0.010659
   57  H  3  X   -0.000648  -0.000191  -0.000424  -0.004358  -0.000464
   58  H  3  Y   -0.007687  -0.002226  -0.007697  -0.042260  -0.012038
   59  H  3  Z   -0.002016  -0.000913  -0.017449  -0.029647  -0.010928
   60  H  4  S   -0.000341  -0.000849   0.116350  -0.229170  -0.139501
   61  H  4  S    0.017710   0.021848  -0.011096  -0.218237  -0.195579
   62  H  4  X   -0.000015  -0.000097   0.000863  -0.000953   0.000021
   63  H  4  Y   -0.000207  -0.001542   0.014304  -0.016864   0.000701
   64  H  4  Z   -0.000617  -0.001021   0.012550  -0.005438  -0.009967
   65  H  4  S    0.001768   0.001995  -0.000050  -0.012766  -0.041414
   66  H  4  X    0.000289   0.000404  -0.000442  -0.001377  -0.002598
   67  H  4  Y    0.004812   0.006763  -0.009264  -0.020581  -0.048842
   68  H  4  Z    0.002444   0.003022   0.008627  -0.034401   0.011558
   69  H  5  S   -0.000189  -0.000913   0.126555  -0.203331   0.340463
   70  H  5  S    0.009316   0.018959   0.015586  -0.226392   0.434252
   71  H  5  X   -0.000002   0.000073  -0.000710   0.000811  -0.000387
   72  H  5  Y   -0.000080   0.001515  -0.014499   0.016632  -0.010200
   73  H  5  Z   -0.000419  -0.000941   0.011298  -0.004923   0.005038
   74  H  5  S    0.001709   0.001147   0.002352  -0.013860   0.045173
   75  H  5  X   -0.000110  -0.000293  -0.000188   0.000065  -0.003688
   76  H  5  Y   -0.002362  -0.005996   0.000363   0.020438  -0.072172
   77  H  5  Z    0.001979   0.002946  -0.001866  -0.053892   0.040866

                      6          7          8          9         10
                   -0.4139    -0.2852    -0.2731    -0.0195    -0.0019
                     A          A          A          A          A   
    1  C  1  S    0.000019   0.000004   0.000587  -0.000094  -0.002996
    2  C  1  S   -0.036518   0.006047   0.050202   0.000216   0.084500
    3  C  1  S   -0.169360   0.005064   0.023243   0.000153   0.345027
    4  C  1  X   -0.012907   0.389722  -0.040269   0.403020   0.001431
    5  C  1  Y   -0.256064  -0.031855  -0.132608  -0.021446   0.029442
    6  C  1  Z   -0.319003   0.010763   0.112734  -0.002557  -0.096147
    7  C  1  X    0.004704   0.215101  -0.016888   0.338171   0.001179
    8  C  1  Y    0.060041  -0.008678   0.032767  -0.019389   0.042113
    9  C  1  Z   -0.091136  -0.002473  -0.021891  -0.002035  -0.283529
   10  C  1 XX   -0.001102  -0.000015   0.000534  -0.000057   0.000916
   11  C  1 YY    0.010440  -0.000109  -0.000739  -0.000049  -0.002755
   12  C  1 ZZ   -0.009338   0.000124   0.000205   0.000106   0.001839
   13  C  1 XY    0.000954   0.000649   0.000068   0.000062  -0.000274
   14  C  1 XZ    0.001198   0.021750   0.000552  -0.030029   0.000128
   15  C  1 YZ    0.013707   0.001593   0.040503   0.002376   0.001406
   16  C  1  S   -0.038179   0.016550   0.157987   0.001267   1.298524
   17  C  1  X    0.003048   0.028666  -0.001642   0.563714  -0.003107
   18  C  1  Y    0.051521  -0.000304   0.020040  -0.029484   0.036811
   19  C  1  Z   -0.014676   0.004108   0.040242  -0.001225  -0.298698
   20  C  1 XX   -0.000087  -0.000076  -0.005567  -0.000099  -0.039325
   21  C  1 YY   -0.043715   0.002689   0.029275   0.000267   0.024328
   22  C  1 ZZ    0.043803  -0.002612  -0.023708  -0.000168   0.014997
   23  C  1 XY   -0.002593   0.004671   0.001683  -0.003252   0.003947
   24  C  1 XZ   -0.002631   0.003557  -0.002239  -0.041991   0.002390
   25  C  1 YZ   -0.052620  -0.002538  -0.035149   0.000841   0.027086
   26  C  2  S   -0.000870   0.000016  -0.000766  -0.000107  -0.002535
   27  C  2  S    0.031616  -0.015119  -0.150695   0.002111   0.055979
   28  C  2  S   -0.054254  -0.029314  -0.310683   0.005927   0.365860
   29  C  2  X    0.007527   0.442620  -0.007269  -0.410702   0.003598
   30  C  2  Y    0.033563   0.008504   0.474144   0.030069   0.043520
   31  C  2  Z    0.373820  -0.025964  -0.255268   0.003702   0.082513
   32  C  2  X   -0.004313   0.255765  -0.008162  -0.347691   0.008452
   33  C  2  Y   -0.066006   0.000510   0.242779   0.027790   0.098313
   34  C  2  Z    0.045182  -0.020966  -0.222195   0.002049  -0.007036
   35  C  2 XX   -0.001519  -0.000156  -0.004725  -0.000148  -0.001715
   36  C  2 YY    0.010943  -0.000207  -0.000026   0.000005  -0.004853
   37  C  2 ZZ   -0.009424   0.000363   0.004750   0.000143   0.006568
   38  C  2 XY    0.001145  -0.000493   0.000921  -0.000074  -0.000242
   39  C  2 XZ    0.001261  -0.020250   0.002920  -0.032120  -0.000168
   40  C  2 YZ    0.017742   0.002720   0.020216   0.001462  -0.003599
   41  C  2  S   -0.014726  -0.024934  -0.261459   0.006160   0.871585
   42  C  2  X   -0.002676   0.031283  -0.001579  -0.515266   0.017559
   43  C  2  Y   -0.035885  -0.000481   0.023970   0.032930   0.189991
   44  C  2  Z   -0.015149   0.001334   0.007323   0.002411   0.147352
   45  C  2 XX   -0.004239   0.000736   0.006865   0.000834  -0.039314
   46  C  2 YY   -0.036551  -0.002093  -0.022865  -0.000767  -0.012876
   47  C  2 ZZ    0.040790   0.001357   0.016000  -0.000068   0.052190
   48  C  2 XY   -0.003569  -0.001517  -0.001994   0.008284   0.002841
   49  C  2 XZ   -0.001082  -0.007196  -0.000265  -0.037719   0.002745
   50  C  2 YZ   -0.017335  -0.000248  -0.012163   0.000824   0.033160
   51  H  3  S    0.232079   0.015807   0.195301  -0.005515   0.005299
   52  H  3  S    0.277164   0.020758   0.249437  -0.005727  -0.358159
   53  H  3  X   -0.000680   0.015610  -0.001144  -0.020888  -0.000862
   54  H  3  Y   -0.009235  -0.000666   0.006894   0.001495  -0.010637
   55  H  3  Z    0.001061  -0.001571  -0.015872   0.000159  -0.001557
   56  H  3  S    0.036767   0.001610   0.027558  -0.003614  -0.897352
   57  H  3  X   -0.003138   0.015114  -0.003651  -0.053505   0.002762
   58  H  3  Y   -0.038514  -0.002720  -0.017703   0.002421   0.031642
   59  H  3  Z   -0.036283  -0.003045  -0.029071  -0.000067   0.032965
   60  H  4  S    0.325483   0.009327   0.145720   0.001185   0.006975
   61  H  4  S    0.392155   0.011863   0.193088   0.003500  -0.404845
   62  H  4  X    0.000693   0.014336  -0.001265   0.021776   0.000555
   63  H  4  Y    0.009587  -0.000914  -0.000836  -0.001285   0.009625
   64  H  4  Z    0.003271   0.000410   0.005116  -0.000244   0.002106
   65  H  4  S    0.036074   0.002485   0.039793   0.008497  -0.640734
   66  H  4  X    0.003629   0.015719   0.000589   0.045404  -0.003545
   67  H  4  Y    0.055045   0.001731   0.035371  -0.002358  -0.063534
   68  H  4  Z    0.052605  -0.000010   0.003302  -0.001243  -0.017064
   69  H  5  S   -0.074318  -0.016752  -0.209815  -0.003556   0.003928
   70  H  5  S   -0.185431  -0.026989  -0.337488  -0.005188  -0.418812
   71  H  5  X   -0.000177   0.014294  -0.001284   0.022623  -0.000632
   72  H  5  Y   -0.003124  -0.000694  -0.000025  -0.001240  -0.012201
   73  H  5  Z   -0.010905  -0.000023   0.000277   0.000003   0.003427
   74  H  5  S   -0.043367  -0.002248  -0.041699  -0.005562  -1.137691
   75  H  5  X    0.002123   0.012880   0.000677   0.052701   0.001907
   76  H  5  Y    0.051171   0.002634   0.043157  -0.003406   0.036203
   77  H  5  Z   -0.005899  -0.002528  -0.023061   0.000885  -0.024495

                     11         12         13         14         15
                    0.0149     0.0251     0.0627     0.0712     0.0791
                     A          A          A          A          A   
    1  C  1  S   -0.001241   0.002397   0.000947   0.007628   0.002856
    2  C  1  S    0.067630  -0.017147  -0.001281  -0.012335   0.043632
    3  C  1  S    0.183955  -0.129177  -0.049842  -0.388890   0.154072
    4  C  1  X   -0.003715  -0.005274  -0.171779   0.015780  -0.000509
    5  C  1  Y   -0.067459  -0.118450   0.011714   0.036360   0.011718
    6  C  1  Z   -0.036410   0.005080   0.000945   0.014054   0.054672
    7  C  1  X   -0.010247  -0.017626  -0.198861   0.023536   0.001979
    8  C  1  Y   -0.171162  -0.371045   0.016213   0.101114   0.010805
    9  C  1  Z   -0.273751   0.105494   0.001053   0.033693  -0.045122
   10  C  1 XX    0.002832  -0.003169  -0.000362  -0.007370  -0.006849
   11  C  1 YY    0.004855  -0.001750   0.000067   0.001090  -0.010889
   12  C  1 ZZ   -0.007687   0.004919   0.000295   0.006280   0.017738
   13  C  1 XY    0.000194   0.000064   0.000867   0.000502  -0.000227
   14  C  1 XZ   -0.000502  -0.000213  -0.006137  -0.000353   0.000215
   15  C  1 YZ   -0.004787  -0.003820  -0.000466  -0.010506   0.003066
   16  C  1  S    0.426837  -1.754373  -1.048156 -10.822510   1.494790
   17  C  1  X   -0.006112  -0.106424   0.629461  -0.038651  -0.031448
   18  C  1  Y   -0.202069  -1.938722   0.044021   0.435960  -0.487377
   19  C  1  Z   -0.535201  -0.375633  -0.438088  -4.820414  -1.573183
   20  C  1 XX   -0.010668   0.016447   0.004312   0.080384   0.022380
   21  C  1 YY    0.021913  -0.051420  -0.011110  -0.153587   0.016720
   22  C  1 ZZ   -0.011244   0.034973   0.006797   0.073203  -0.039101
   23  C  1 XY    0.003256  -0.004034  -0.024843  -0.013824  -0.001148
   24  C  1 XZ   -0.002303   0.005985  -0.041091   0.005250   0.007385
   25  C  1 YZ   -0.043057   0.099592   0.000426   0.003440   0.113274
   26  C  2  S   -0.001270  -0.000759  -0.000679  -0.005510   0.005523
   27  C  2  S   -0.073240   0.047947   0.003439   0.040794   0.030738
   28  C  2  S   -0.231071   0.244694   0.044322   0.429098   0.050698
   29  C  2  X   -0.008019  -0.002703  -0.128099   0.000411   0.003398
   30  C  2  Y   -0.084725  -0.046000  -0.001724  -0.142481   0.060889
   31  C  2  Z   -0.027994   0.023371   0.001128   0.004698  -0.075733
   32  C  2  X   -0.015938   0.007452  -0.143732   0.023478  -0.013131
   33  C  2  Y   -0.158963   0.093566   0.027704   0.114811  -0.141524
   34  C  2  Z   -0.249955   0.150076  -0.000254   0.044843  -0.063733
   35  C  2 XX   -0.003372   0.001470  -0.000591   0.001459  -0.010045
   36  C  2 YY   -0.001775   0.002161   0.000727  -0.000606  -0.013453
   37  C  2 ZZ    0.005148  -0.003631  -0.000136  -0.000853   0.023498
   38  C  2 XY    0.000274  -0.000018  -0.003857   0.000107  -0.000316
   39  C  2 XZ    0.000499   0.000312   0.013357  -0.000883  -0.000385
   40  C  2 YZ    0.008215   0.007582  -0.000697   0.001980  -0.006716
   41  C  2  S   -0.491001   2.291746   1.057317  11.126768  -0.289282
   42  C  2  X   -0.051042   0.064605   0.589034  -0.039508   0.007783
   43  C  2  Y   -0.552930   1.023075  -0.064157   0.318966  -0.062294
   44  C  2  Z   -0.626448  -0.234539  -0.410942  -4.185017   1.876732
   45  C  2 XX    0.007387  -0.040712  -0.001605  -0.075708   0.062844
   46  C  2 YY   -0.062725   0.032727   0.001129   0.084459  -0.026690
   47  C  2 ZZ    0.055338   0.007985   0.000476  -0.008751  -0.036154
   48  C  2 XY   -0.007013   0.006269   0.040035   0.011180  -0.006629
   49  C  2 XZ   -0.005492   0.006649   0.015572   0.003752   0.006678
   50  C  2 YZ   -0.072302   0.084834   0.002990   0.059820   0.082651
   51  H  3  S    0.016498   0.015076  -0.000761  -0.022788  -0.017672
   52  H  3  S    0.671366  -0.548451  -0.075665  -0.850519   0.215235
   53  H  3  X    0.000829  -0.000134   0.005802   0.000333  -0.000657
   54  H  3  Y    0.010273   0.000163   0.000368   0.009754  -0.008446
   55  H  3  Z    0.008212  -0.000471   0.000147   0.005315   0.007026
   56  H  3  S    2.555880  -1.431963   0.311524   3.485089  -0.153426
   57  H  3  X   -0.007092   0.011946  -0.037698   0.016668  -0.007572
   58  H  3  Y   -0.082735   0.132796   0.017276   0.135689  -0.084492
   59  H  3  Z   -0.021232   0.003724   0.015245   0.140785  -0.096828
   60  H  4  S   -0.009793   0.012705  -0.001300  -0.022960  -0.023467
   61  H  4  S   -0.446431  -0.451846   0.062025   0.591061  -0.344067
   62  H  4  X    0.000546   0.000278   0.003534  -0.000382   0.000162
   63  H  4  Y    0.007566   0.002766   0.000017  -0.000156   0.003613
   64  H  4  Z    0.007188   0.002831  -0.000675  -0.010566  -0.011318
   65  H  4  S   -2.037940  -3.111972   0.027523   0.442454  -1.130747
   66  H  4  X   -0.002740  -0.003663  -0.069688   0.008991  -0.001633
   67  H  4  Y   -0.059862  -0.052245   0.006667   0.031841  -0.011609
   68  H  4  Z   -0.008008  -0.053210   0.013159   0.145781   0.029067
   69  H  5  S    0.002760  -0.002533   0.001784   0.025596  -0.038136
   70  H  5  S   -0.159410   0.860671   0.041575   0.404422   0.095460
   71  H  5  X   -0.000030   0.000170   0.004187  -0.000369  -0.000332
   72  H  5  Y   -0.002474   0.004230  -0.000295  -0.001299  -0.006242
   73  H  5  Z    0.003252  -0.007299  -0.000298  -0.002364  -0.014310
   74  H  5  S   -0.489119   3.804644  -0.369904  -4.346483   0.580011
   75  H  5  X    0.002965  -0.003109  -0.031178   0.005884  -0.004593
   76  H  5  Y    0.063393  -0.091898  -0.000929  -0.002156  -0.090134
   77  H  5  Z    0.051697   0.068696   0.012625   0.100803   0.038372

                     16         17         18         19         20
                    0.1117     0.1126     0.1167     0.1280     0.1461
                     A          A          A          A          A   
    1  C  1  S    0.005527  -0.001425  -0.038888  -0.014802  -0.015042
    2  C  1  S   -0.061131   0.002841  -0.204485  -0.019330  -0.120568
    3  C  1  S   -1.014995   0.116739   0.325637   0.524092   0.530423
    4  C  1  X    0.030666   0.234384  -0.007273   0.008914   0.005217
    5  C  1  Y    0.111410  -0.023712  -0.084282   0.238029   0.037752
    6  C  1  Z    0.003642   0.000141   0.121432   0.001475   0.130748
    7  C  1  X   -0.005337   0.188427   0.008258  -0.056755   0.001551
    8  C  1  Y   -0.420602   0.029358   0.297275  -0.928580  -0.168591
    9  C  1  Z   -1.251902   0.096742  -1.547256  -0.371453   1.556574
   10  C  1 XX    0.001045   0.000482   0.019931   0.016247  -0.039231
   11  C  1 YY   -0.000208  -0.000221   0.003833  -0.007796   0.048454
   12  C  1 ZZ   -0.000837  -0.000261  -0.023764  -0.008451  -0.009223
   13  C  1 XY    0.000283   0.001222  -0.000952  -0.002188   0.005657
   14  C  1 XZ    0.001041  -0.007039  -0.000493   0.000612  -0.001337
   15  C  1 YZ    0.024162  -0.001716  -0.007394   0.009118  -0.016679
   16  C  1  S   -5.694629   0.664326   5.135720   5.263233   0.168135
   17  C  1  X   -0.231617  -2.221278   0.124014  -0.322278  -0.138177
   18  C  1  Y   -0.276183   0.158799   1.830728  -6.061353  -2.420855
   19  C  1  Z   -3.637138   0.342093  -1.907236   1.699845   0.569976
   20  C  1 XX    0.045992  -0.010825  -0.160228  -0.036055  -0.099110
   21  C  1 YY    0.185504  -0.006516   0.339679   0.194803  -0.661171
   22  C  1 ZZ   -0.231496   0.017341  -0.179451  -0.158748   0.760281
   23  C  1 XY    0.008739  -0.034301   0.031014   0.019209  -0.035721
   24  C  1 XZ   -0.009310  -0.056174   0.004227   0.018703   0.023746
   25  C  1 YZ   -0.060612   0.009392  -0.013126   0.334336   0.318401
   26  C  2  S    0.008443  -0.001747  -0.036132  -0.026092   0.024825
   27  C  2  S    0.111986  -0.012883  -0.113497  -0.098726   0.013592
   28  C  2  S    0.494638  -0.013835   1.281429   0.768388  -2.200446
   29  C  2  X   -0.008281  -0.241182   0.002778   0.002023  -0.010203
   30  C  2  Y    0.181582  -0.000735  -0.008683   0.001278  -0.092873
   31  C  2  Z    0.059153  -0.005510  -0.085381  -0.008823  -0.067793
   32  C  2  X   -0.057423  -0.223009   0.014995   0.036569  -0.043096
   33  C  2  Y   -0.361701   0.066931   0.137499   0.398578  -0.513648
   34  C  2  Z   -1.382162   0.130668  -0.883797   0.133797   1.092826
   35  C  2 XX   -0.004734  -0.000044   0.005518   0.013360  -0.011830
   36  C  2 YY    0.006048   0.000154   0.002398  -0.007640   0.017746
   37  C  2 ZZ   -0.001314  -0.000110  -0.007915  -0.005720  -0.005916
   38  C  2 XY    0.000607  -0.005993   0.000114  -0.001784   0.001839
   39  C  2 XZ   -0.001336  -0.004048   0.000105  -0.000879  -0.000314
   40  C  2 YZ   -0.016056   0.001448   0.004153  -0.017099   0.001660
   41  C  2  S    4.123769  -0.332476   2.586128  -0.905800  -1.972056
   42  C  2  X   -0.014633   2.244491  -0.078550   0.229990   0.050596
   43  C  2  Y   -2.807738   0.154367  -0.733982   3.506083   0.685398
   44  C  2  Z   -4.213548   0.419103  -0.106529   2.252855   1.079928
   45  C  2 XX    0.006357   0.004553  -0.128100  -0.070417  -0.022911
   46  C  2 YY   -0.307854   0.022636  -0.127855   0.040437   0.195911
   47  C  2 ZZ    0.301497  -0.027188   0.255955   0.029980  -0.172999
   48  C  2 XY   -0.024971   0.064411   0.001448   0.008454   0.014032
   49  C  2 XZ   -0.028439  -0.082461   0.009615   0.012658   0.016172
   50  C  2 YZ   -0.245925   0.031427   0.096749   0.144844   0.185286
   51  H  3  S   -0.021600  -0.001777   0.010446  -0.087095   0.103533
   52  H  3  S    2.255216  -0.272187  -0.556994  -1.783574   0.619791
   53  H  3  X   -0.001622  -0.000410   0.000942   0.001009  -0.000665
   54  H  3  Y   -0.019616   0.002473   0.011570   0.010944  -0.008310
   55  H  3  Z   -0.012092   0.001581  -0.001757   0.015123  -0.005296
   56  H  3  S    6.177007  -0.643950   0.110638  -3.848646  -0.758242
   57  H  3  X   -0.059261  -0.113401   0.022170   0.027349   0.008036
   58  H  3  Y   -0.610324   0.076862   0.251016   0.280600   0.213391
   59  H  3  Z   -0.387288   0.043790   0.070277   0.160426  -0.141206
   60  H  4  S    0.028763  -0.002626  -0.002834  -0.057025   0.098679
   61  H  4  S   -1.079342   0.059655  -1.676570  -3.126536   0.730973
   62  H  4  X   -0.000764  -0.000258  -0.000592  -0.001365  -0.001198
   63  H  4  Y   -0.010912   0.000848  -0.009499  -0.022828  -0.023899
   64  H  4  Z   -0.009075   0.000710  -0.000964  -0.011093   0.005870
   65  H  4  S   -3.895044   0.339569  -0.757514  -5.128620  -1.945819
   66  H  4  X   -0.012801   0.090693  -0.028852  -0.032359  -0.021496
   67  H  4  Y   -0.331944   0.018045  -0.438007  -0.568958  -0.470568
   68  H  4  Z   -0.306517   0.019992  -0.207502  -0.570184   0.403475
   69  H  5  S   -0.020218  -0.000982  -0.017656  -0.021372   0.225856
   70  H  5  S   -0.054796  -0.043003  -2.726381   1.120865   2.824421
   71  H  5  X   -0.000303   0.001606   0.001277  -0.000963   0.000817
   72  H  5  Y   -0.007826   0.001119   0.026106  -0.016403   0.011462
   73  H  5  Z    0.000582  -0.000250  -0.013598   0.014695  -0.000272
   74  H  5  S   -1.264036   0.100108  -4.217150   6.582920   2.789858
   75  H  5  X    0.010561   0.121777   0.032437  -0.029402   0.017221
   76  H  5  Y   -0.003169   0.000040   0.666958  -0.421592   0.140575
   77  H  5  Z    0.102423  -0.016306  -0.421159   0.167290   0.436019

                     21         22         23         24         25
                    0.1684     0.1953     0.2194     0.2532     0.2855
                     A          A          A          A          A   
    1  C  1  S    0.049094   0.018887   0.000461  -0.005345   0.009566
    2  C  1  S    0.158200   0.012365  -0.000485  -0.030526   0.136411
    3  C  1  S   -2.129542  -0.569535   0.013513   0.755626  -0.386537
    4  C  1  X   -0.000557   0.006271  -0.002864  -0.009692   0.000348
    5  C  1  Y   -0.066723   0.124353  -0.016637  -0.199716  -0.008806
    6  C  1  Z   -0.061966  -0.020313   0.000106   0.074791   0.013405
    7  C  1  X    0.003214   0.049968   0.070391  -0.013508  -0.003099
    8  C  1  Y   -0.094906   0.604079  -0.040515  -0.219658  -0.081179
    9  C  1  Z   -1.018716   1.221020   0.100739   0.762490  -2.381859
   10  C  1 XX    0.014449  -0.024700  -0.005301  -0.015010   0.023689
   11  C  1 YY   -0.005899   0.025462   0.004571   0.017257   0.073619
   12  C  1 ZZ   -0.008550  -0.000762   0.000731  -0.002247  -0.097309
   13  C  1 XY   -0.000534   0.003647  -0.046947   0.004813   0.003454
   14  C  1 XZ   -0.002532   0.002417   0.002469  -0.001428   0.000904
   15  C  1 YZ   -0.037787   0.037175  -0.002155  -0.031526   0.013334
   16  C  1  S  -18.263157 -20.817668  -1.074897 -10.410136  -2.330775
   17  C  1  X   -0.009824   0.137062  -0.020655  -0.096530   0.043290
   18  C  1  Y   -0.157875   2.477169  -0.038535  -1.735752   0.970049
   19  C  1  Z   -6.206288  -5.886275  -0.307677  -2.296618  -4.024358
   20  C  1 XX    0.179135   0.117782   0.014612   0.081603   0.271215
   21  C  1 YY    0.144060  -0.555794  -0.035939  -0.212353  -0.137724
   22  C  1 ZZ   -0.323196   0.438012   0.021327   0.130749  -0.133490
   23  C  1 XY   -0.002266  -0.048349   0.173319  -0.036260  -0.034081
   24  C  1 XZ    0.024316  -0.002057   0.019939   0.045132  -0.005649
   25  C  1 YZ    0.447674  -0.196403   0.041154   0.857645  -0.213290
   26  C  2  S   -0.045682  -0.017694  -0.000426  -0.004218  -0.033923
   27  C  2  S   -0.197890  -0.049066  -0.000700  -0.000574  -0.162194
   28  C  2  S    1.624449  -0.510223  -0.019320  -0.376338   0.612581
   29  C  2  X   -0.006334   0.009239   0.041453   0.018170   0.006948
   30  C  2  Y   -0.037813   0.061215   0.013434   0.287876   0.038844
   31  C  2  Z   -0.109181  -0.007833  -0.002394   0.022010   0.250091
   32  C  2  X   -0.009054   0.060453   0.234918   0.029633  -0.030895
   33  C  2  Y   -0.151882   0.787097   0.047016   0.385339  -0.416643
   34  C  2  Z   -1.212032   1.121021   0.091871   0.800325  -1.548087
   35  C  2 XX   -0.016119   0.012104  -0.002212   0.014601  -0.029131
   36  C  2 YY    0.011292   0.003714   0.002866  -0.021537  -0.021409
   37  C  2 ZZ    0.004827  -0.015818  -0.000654   0.006936   0.050541
   38  C  2 XY    0.003188  -0.001189  -0.021895  -0.001870  -0.000305
   39  C  2 XZ    0.001059  -0.003791  -0.009120   0.000778   0.000275
   40  C  2 YZ    0.018101  -0.052481   0.001706   0.010005   0.007158
   41  C  2  S   18.498362  20.955965   1.095083  11.058273   4.028865
   42  C  2  X   -0.141530  -0.066215   0.169101   0.098737  -0.087974
   43  C  2  Y   -1.671974  -1.010363  -0.005479   1.597083  -1.292184
   44  C  2  Z   -6.136322  -5.244321  -0.320048  -2.428600  -1.592616
   45  C  2 XX   -0.184237  -0.162369  -0.021162  -0.001315  -0.185768
   46  C  2 YY   -0.168623   0.198153   0.045593   0.200410  -0.178170
   47  C  2 ZZ    0.352861  -0.035784  -0.024431  -0.199094   0.363938
   48  C  2 XY    0.006671   0.029757  -0.253074   0.035020   0.002052
   49  C  2 XZ    0.019581   0.031554   0.115615   0.029564  -0.015493
   50  C  2 YZ    0.336483   0.276374   0.027580   0.614761  -0.328025
   51  H  3  S    0.177695  -0.179345  -0.002450  -0.091808   0.023666
   52  H  3  S   -0.265859  -3.006325  -0.252343  -2.930100   2.126269
   53  H  3  X    0.000840   0.000064   0.004123  -0.000648  -0.000290
   54  H  3  Y    0.013026  -0.002272  -0.000014  -0.003198  -0.002580
   55  H  3  Z    0.005017  -0.007286  -0.000182  -0.004698   0.012043
   56  H  3  S    3.152829   1.714403   0.156824   0.172437   2.676395
   57  H  3  X    0.056346   0.053491  -0.520502   0.020625  -0.088147
   58  H  3  Y    0.593124   0.626005   0.071431  -0.239830  -0.701373
   59  H  3  Z    0.159793  -0.197772   0.032159   0.215730  -0.247566
   60  H  4  S   -0.160942   0.216744  -0.003443   0.013698  -0.018060
   61  H  4  S   -0.615381   3.611694  -0.002044  -0.751459  -1.156184
   62  H  4  X    0.001274  -0.000109   0.000658  -0.000083  -0.000893
   63  H  4  Y    0.019896   0.001828   0.000628  -0.000050  -0.015524
   64  H  4  Z    0.022105  -0.001482   0.001362   0.024506   0.008847
   65  H  4  S   -2.021887   0.909770  -0.035752  -0.458961  -0.909778
   66  H  4  X   -0.001723   0.007792   0.728558  -0.076157  -0.042903
   67  H  4  Y    0.137222   0.194353  -0.030676  -0.332793  -0.588675
   68  H  4  Z    0.220960   0.137584   0.026997   0.425458   0.850701
   69  H  5  S    0.029333  -0.054597   0.009341   0.155637  -0.047515
   70  H  5  S    1.532950   1.083797   0.237339   2.749467  -1.898022
   71  H  5  X   -0.000743   0.000168  -0.003105   0.001091   0.000781
   72  H  5  Y   -0.015784   0.001922   0.000538   0.016454   0.012631
   73  H  5  Z   -0.007935   0.016142  -0.001265  -0.017816   0.017524
   74  H  5  S   -1.438951  -3.073912  -0.128264  -0.002694  -2.701046
   75  H  5  X   -0.009042   0.006734  -0.831983   0.055511   0.046986
   76  H  5  Y   -0.472123  -0.050518   0.020101  -0.032785   0.827756
   77  H  5  Z   -0.038015   0.604425  -0.006741  -0.518144   0.876004

                     26         27         28         29         30
                    0.3083     0.3149     0.3553     0.3773     0.4045
                     A          A          A          A          A   
    1  C  1  S    0.002323  -0.030531  -0.000570  -0.019925   0.040221
    2  C  1  S    0.010523  -0.129108   0.000540  -0.059277  -0.017051
    3  C  1  S   -0.095693   1.435163   0.037364   1.786065  -2.117962
    4  C  1  X   -0.058042  -0.017157  -0.246082   0.018223   0.004341
    5  C  1  Y    0.013675  -0.138324   0.014181   0.278739   0.054727
    6  C  1  Z    0.020448  -0.251813  -0.000750  -0.075486  -0.000436
    7  C  1  X   -0.346971  -0.000411  -0.966893   0.177111   0.022873
    8  C  1  Y   -0.016925   0.225197   0.047045   3.098947   0.301363
    9  C  1  Z   -0.217927   2.316315   0.045904   1.752020  -1.814607
   10  C  1 XX   -0.001535  -0.027064   0.000658  -0.013558   0.018369
   11  C  1 YY    0.005398   0.001106  -0.001059   0.006486   0.008614
   12  C  1 ZZ   -0.003863   0.025958   0.000401   0.007071  -0.026983
   13  C  1 XY   -0.034458  -0.000082   0.011104   0.000769  -0.000463
   14  C  1 XZ   -0.018238  -0.002954  -0.029537  -0.002709  -0.000492
   15  C  1 YZ    0.003561  -0.023037   0.001906  -0.050291  -0.010187
   16  C  1  S   -0.703605   5.216940   0.053225   0.105298  -6.279463
   17  C  1  X   -0.085728  -0.226873  -1.111674   0.267537   0.105786
   18  C  1  Y    0.320410  -3.603325   0.078122   4.838419   1.588577
   19  C  1  Z   -0.254112   1.502655   0.001515  -0.057173  -1.790508
   20  C  1 XX    0.072356  -0.080978  -0.029424  -0.080480   0.528273
   21  C  1 YY   -0.016798  -0.561102   0.000768  -0.333886   0.613276
   22  C  1 ZZ   -0.055558   0.642080   0.028656   0.414365  -1.141549
   23  C  1 XY    0.513597   0.005697  -0.226950  -0.025629  -0.014773
   24  C  1 XZ    0.000306   0.076762   0.077933   0.010307   0.011625
   25  C  1 YZ   -0.093498   1.047755  -0.010811   0.300314   0.269143
   26  C  2  S   -0.003091   0.027677   0.000150   0.010289   0.032293
   27  C  2  S   -0.012204   0.109832   0.000997   0.028196  -0.012794
   28  C  2  S    0.151594  -1.562294  -0.041467  -0.564042  -0.265316
   29  C  2  X   -0.111800  -0.008966   0.045098   0.002686  -0.014071
   30  C  2  Y    0.005086   0.034650   0.001383   0.034586  -0.202725
   31  C  2  Z    0.003029   0.018382  -0.002134  -0.018414   0.034747
   32  C  2  X   -0.633669  -0.084326   0.448962   0.039058  -0.172521
   33  C  2  Y    0.098151  -0.492203   0.009849   0.189589  -2.252244
   34  C  2  Z   -0.256351   3.001064   0.050555   2.031458  -2.949386
   35  C  2 XX    0.001997   0.028983  -0.001221   0.007255   0.005345
   36  C  2 YY   -0.009119   0.051183   0.001198   0.011137  -0.020924
   37  C  2 ZZ    0.007122  -0.080166   0.000023  -0.018392   0.015579
   38  C  2 XY    0.034800   0.004735  -0.010212   0.000294  -0.002941
   39  C  2 XZ    0.024738   0.000172   0.015150   0.000402  -0.000682
   40  C  2 YZ   -0.000072  -0.021356  -0.000456   0.006216  -0.007239
   41  C  2  S    0.574127  -4.186948   0.043800   0.616248   0.726614
   42  C  2  X   -0.478820   0.160854   0.539109  -0.019229  -0.214136
   43  C  2  Y   -0.219911   2.635137  -0.012009  -0.629797  -2.745668
   44  C  2  Z   -0.396708   3.923838  -0.011593   0.604536  -1.906522
   45  C  2 XX   -0.073265   0.353110  -0.024641   0.145814   0.889812
   46  C  2 YY    0.016229   0.382847   0.035860   0.773260  -0.948328
   47  C  2 ZZ    0.057036  -0.735957  -0.011219  -0.919074   0.058517
   48  C  2 XY   -0.360458  -0.022671  -0.176361   0.048165  -0.168899
   49  C  2 XZ   -0.167853   0.075188   0.327113   0.040607   0.006499
   50  C  2 YZ   -0.085918   1.148771  -0.025379   0.724537   0.124079
   51  H  3  S    0.004467  -0.021081  -0.000575   0.054932  -0.034199
   52  H  3  S    0.261734  -2.963701  -0.097082  -3.301608   6.773199
   53  H  3  X    0.004928   0.000120   0.000139  -0.000029   0.000076
   54  H  3  Y   -0.000226  -0.000731  -0.000055   0.000403   0.002081
   55  H  3  Z    0.003194  -0.034607  -0.000103  -0.009536   0.008943
   56  H  3  S    0.325726  -2.901347  -0.007160  -0.567495   3.008053
   57  H  3  X    1.505700   0.208306  -0.387974   0.051118  -0.134132
   58  H  3  Y   -0.204526   1.030301   0.036531   0.481481  -1.423431
   59  H  3  Z    0.082125  -1.068257   0.026607   0.747700  -0.882348
   60  H  4  S    0.007648  -0.051369  -0.001298   0.026041   0.038975
   61  H  4  S    0.032921  -0.554270   0.013642   4.335771   0.157309
   62  H  4  X    0.004986  -0.000031  -0.011905   0.000355   0.000515
   63  H  4  Y   -0.000819  -0.000831   0.000520   0.004976   0.003913
   64  H  4  Z   -0.000338   0.004106  -0.000067   0.002799   0.000651
   65  H  4  S    0.095483  -1.318911   0.011412   4.143111   0.213096
   66  H  4  X    1.283740   0.110473   0.715873  -0.007119  -0.045639
   67  H  4  Y   -0.112536   0.142981  -0.035333  -0.091798  -0.294711
   68  H  4  Z   -0.057833   0.776781   0.011506   1.552987  -0.434024
   69  H  5  S   -0.000882   0.045085  -0.002249   0.009631   0.022173
   70  H  5  S   -0.250580   3.324378  -0.014199  -2.694235   0.511753
   71  H  5  X   -0.006412  -0.000113  -0.010017   0.000914  -0.000181
   72  H  5  Y    0.000269   0.008281   0.000466   0.014392   0.000627
   73  H  5  Z    0.002998  -0.032758   0.000159  -0.018172   0.001573
   74  H  5  S   -0.364041   3.663625  -0.041753  -3.858829  -0.962420
   75  H  5  X   -0.456308  -0.036951   1.619438  -0.032166   0.014935
   76  H  5  Y    0.088945  -0.548197  -0.085413  -0.392853  -0.216724
   77  H  5  Z   -0.008874   0.407575   0.006646  -0.911063  -0.197662

                     31         32         33         34         35
                    0.4383     0.4437     0.4484     0.4764     0.4833
                     A          A          A          A          A   
    1  C  1  S    0.065371   0.011491   0.003971   0.021478   0.003693
    2  C  1  S    0.029956  -0.048923  -0.002523  -0.025376   0.029945
    3  C  1  S   -4.204433   0.914440   0.002467  -2.153798  -0.175562
    4  C  1  X    0.005175   0.039585  -0.246152  -0.016367  -0.049378
    5  C  1  Y    0.026540  -0.067764   0.008742  -0.132585  -0.044234
    6  C  1  Z    0.082432  -0.001417   0.015758  -0.013942   0.085974
    7  C  1  X    0.020593   0.348651  -1.769253  -0.256252  -0.272478
    8  C  1  Y   -0.606998   1.171491   0.514687  -3.573618   0.644792
    9  C  1  Z    5.965889   3.660777   0.689182  -0.807283   0.755458
   10  C  1 XX    0.017607  -0.008735  -0.000269  -0.012817   0.002230
   11  C  1 YY   -0.026332  -0.004902  -0.001608   0.012643  -0.001507
   12  C  1 ZZ    0.008726   0.013637   0.001877   0.000174  -0.000723
   13  C  1 XY   -0.002763   0.000911  -0.002096   0.001581  -0.005186
   14  C  1 XZ    0.000638  -0.000309   0.013983   0.000527  -0.031319
   15  C  1 YZ    0.020318   0.011221  -0.001070  -0.012158  -0.013550
   16  C  1  S   -6.872897  -3.827162  -1.110190   3.675494  -1.212747
   17  C  1  X    0.004924   0.253456  -1.110862  -0.078829   0.168711
   18  C  1  Y   -0.569815   1.602832   0.421657  -0.772007   0.236978
   19  C  1  Z    1.113397   0.227003  -0.006200   0.791363  -0.011236
   20  C  1 XX    0.576777   0.246965   0.113431  -0.457917   0.051292
   21  C  1 YY   -1.937700  -0.724375  -0.147677   0.479451   0.005467
   22  C  1 ZZ    1.360923   0.477410   0.034246  -0.021534  -0.056759
   23  C  1 XY   -0.150145  -0.111203   0.238988   0.095455  -0.325026
   24  C  1 XZ    0.025442  -0.235254   0.083352  -0.034552   1.375917
   25  C  1 YZ    0.583113  -2.617799  -0.394216  -0.129165  -0.434631
   26  C  2  S    0.062751   0.027557   0.003475   0.054211   0.001323
   27  C  2  S   -0.000357  -0.024296  -0.009903   0.014755  -0.030690
   28  C  2  S   -6.469318  -2.393940  -0.347142  -4.330470  -0.523067
   29  C  2  X    0.003301  -0.022629   0.255184   0.000194  -0.245857
   30  C  2  Y    0.127621   0.064822  -0.005012  -0.136442   0.007681
   31  C  2  Z    0.028084  -0.081963   0.000722  -0.178055   0.055892
   32  C  2  X   -0.062025   0.181388   0.726739  -0.106741  -1.485644
   33  C  2  Y   -0.685579   3.188475   0.394027  -1.467225   0.216400
   34  C  2  Z    3.096413   2.733599   0.506078  -2.374156   0.663555
   35  C  2 XX    0.032970  -0.001105  -0.000571  -0.010449  -0.004294
   36  C  2 YY   -0.012332   0.026793   0.004309   0.016367   0.003958
   37  C  2 ZZ   -0.020638  -0.025688  -0.003739  -0.005917   0.000337
   38  C  2 XY   -0.003540   0.003133  -0.004110   0.002329   0.004575
   39  C  2 XZ   -0.001631   0.001341   0.015570   0.002063   0.002461
   40  C  2 YZ   -0.020370   0.054472   0.007552   0.013139   0.011100
   41  C  2  S   -0.724844   1.337872   0.537304  -4.744463   0.959929
   42  C  2  X   -0.002401  -0.131268   1.173191   0.015062  -0.515406
   43  C  2  Y    0.503528   0.043136  -0.102111  -0.244739   0.033036
   44  C  2  Z   -0.231489  -0.127731  -0.096044   0.156979  -0.092435
   45  C  2 XX    0.041763   0.218043   0.112647  -0.138281  -0.210211
   46  C  2 YY    0.523380   1.349847   0.086067   0.097113  -0.006944
   47  C  2 ZZ   -0.565143  -1.567890  -0.198715   0.041167   0.217155
   48  C  2 XY    0.014258   0.061950   0.668067   0.027503  -0.943675
   49  C  2 XZ   -0.005346   0.119505  -1.046071  -0.083880  -0.274530
   50  C  2 YZ   -0.382560  -0.828119  -0.007107  -0.360096   0.274492
   51  H  3  S   -0.092021   0.185872   0.029510   0.128664   0.054707
   52  H  3  S    1.172843  -3.166472  -0.570459   6.485960  -0.433163
   53  H  3  X   -0.001407  -0.000615   0.017232   0.002766  -0.021499
   54  H  3  Y   -0.018700   0.013337   0.000009   0.029187   0.004537
   55  H  3  Z   -0.020541   0.025477   0.004181   0.003242   0.010032
   56  H  3  S   -0.039326  -0.205826  -0.021283   0.895968  -0.091251
   57  H  3  X   -0.010845   0.039314  -0.745057  -0.264187   1.378417
   58  H  3  Y   -0.417269  -0.193339   0.102036  -3.232951   0.098629
   59  H  3  Z   -0.082131   1.439359   0.162204  -0.986986  -0.507239
   60  H  4  S   -0.042900  -0.082039  -0.017716   0.015881  -0.063260
   61  H  4  S    6.262114   9.159876   1.860163  -5.737807   1.640489
   62  H  4  X    0.000464   0.001390  -0.016871  -0.000423   0.004641
   63  H  4  Y    0.007196  -0.018214  -0.001511   0.004103   0.001074
   64  H  4  Z   -0.006116  -0.011634  -0.000025  -0.000741   0.013631
   65  H  4  S    1.444104   1.847929   0.395915  -0.880591   0.200734
   66  H  4  X    0.064758  -0.038571   1.311149  -0.050799   0.176481
   67  H  4  Y    1.146149   2.952801   0.484944  -1.586194   0.389425
   68  H  4  Z    1.844610   0.094381   0.068794  -1.206471  -0.063503
   69  H  5  S   -0.176216   0.092626   0.013367   0.109698   0.042035
   70  H  5  S    9.059559  -2.660336  -0.483232   4.596376  -0.458283
   71  H  5  X   -0.000357   0.001603  -0.007990   0.001240  -0.013082
   72  H  5  Y   -0.006908  -0.005528  -0.000553   0.022411   0.005293
   73  H  5  Z    0.007170  -0.004201  -0.001179   0.003116  -0.003654
   74  H  5  S    1.529948  -0.524320  -0.131291   0.798225   0.017320
   75  H  5  X   -0.116795  -0.023178   0.439060  -0.153434   1.127460
   76  H  5  Y   -2.095057   1.508667   0.230336  -2.515146  -0.080078
   77  H  5  Z    1.145867   0.964196   0.064861   1.413817  -0.118757

                     36         37         38         39         40
                    0.4869     0.4935     0.5048     0.5567     0.5631
                     A          A          A          A          A   
    1  C  1  S    0.015101   0.103878  -0.026088   0.076850   0.016640
    2  C  1  S   -0.103900  -0.001368  -0.027780   0.021537   0.005983
    3  C  1  S   -1.881490  -8.206676   4.388754  -8.256106  -1.652224
    4  C  1  X   -0.011777   0.007496  -0.008691  -0.006114   0.071197
    5  C  1  Y    0.169968  -0.000601  -0.109272  -0.061941  -0.008586
    6  C  1  Z   -0.222799   0.329838  -0.089092  -0.142156  -0.032766
    7  C  1  X   -0.211144  -0.011895  -0.480944  -0.250637   1.346197
    8  C  1  Y   -0.348524  -1.024430  -7.077077  -0.164899  -0.084551
    9  C  1  Z   -2.792068  -2.626007   1.418371  -1.550980  -0.539255
   10  C  1 XX   -0.010398   0.009099  -0.006240   0.026095   0.006222
   11  C  1 YY    0.013860   0.031439  -0.009168  -0.007692  -0.002547
   12  C  1 ZZ   -0.003462  -0.040537   0.015409  -0.018403  -0.003675
   13  C  1 XY    0.000270   0.001577  -0.000543  -0.003209   0.002090
   14  C  1 XZ   -0.004190   0.001275  -0.000575   0.009469  -0.054994
   15  C  1 YZ    0.054348  -0.004162   0.013616  -0.028061  -0.001844
   16  C  1  S    4.345446  -5.208362  -4.738749 -14.410385  -3.367509
   17  C  1  X    0.004046  -0.030282  -0.110912   0.008036   0.230496
   18  C  1  Y   -0.138067  -0.611701  -1.885139   0.903578   0.187069
   19  C  1  Z    0.376876  -0.241002  -0.965690  -4.764601  -1.115279
   20  C  1 XX   -0.294860   0.321911   0.554194  -0.084660   0.193078
   21  C  1 YY    0.586859   2.638256  -0.675834  -1.769685  -0.480959
   22  C  1 ZZ   -0.292000  -2.960166   0.121640   1.854345   0.287881
   23  C  1 XY   -0.014410   0.168142  -0.099953  -0.401491   1.552104
   24  C  1 XZ    0.425078  -0.058602   0.104683  -0.353887   2.151566
   25  C  1 YZ    0.731907   0.410155   0.271743   0.194172  -0.035387
   26  C  2  S   -0.007727  -0.088630  -0.030269  -0.050003  -0.011674
   27  C  2  S    0.086543  -0.084007  -0.009827   0.133009   0.026066
   28  C  2  S    2.448124  10.111755   2.701843   2.824958   0.780745
   29  C  2  X   -0.050441   0.009807  -0.005906   0.071398  -0.311137
   30  C  2  Y    0.072331  -0.025483  -0.016558  -0.001064   0.014114
   31  C  2  Z   -0.185121   0.182183  -0.002177  -0.082826  -0.016478
   32  C  2  X   -0.412595   0.175680   0.156143   0.270272  -1.415738
   33  C  2  Y   -0.507881   1.094634   3.259320   0.602284   0.121006
   34  C  2  Z   -3.067521  -2.995632   2.582989  -1.429108  -0.482924
   35  C  2 XX    0.009810  -0.050039   0.003325   0.010210   0.004157
   36  C  2 YY   -0.013240   0.004417   0.006837  -0.026017  -0.008197
   37  C  2 ZZ    0.003430   0.045622  -0.010161   0.015807   0.004041
   38  C  2 XY   -0.002060   0.004138   0.000917  -0.008758   0.026190
   39  C  2 XZ   -0.000705   0.000341   0.001564   0.003901  -0.032931
   40  C  2 YZ   -0.030315   0.007536   0.009744  -0.014101  -0.000938
   41  C  2  S   -4.185338   5.508361   5.727707  15.355128   3.625101
   42  C  2  X   -0.129989   0.053382   0.057014  -0.003306  -0.395975
   43  C  2  Y   -0.208343   0.468648   0.967616  -1.166482  -0.230724
   44  C  2  Z    0.357395  -0.739429  -0.692285  -3.738770  -0.898194
   45  C  2 XX    0.198506  -0.335143  -0.022296  -0.370598  -0.087060
   46  C  2 YY    0.316560  -0.542115   1.479304  -0.912474  -0.190094
   47  C  2 ZZ   -0.515065   0.877258  -1.457007   1.283071   0.277154
   48  C  2 XY   -0.234329   0.038220   0.054948  -0.055560   0.042630
   49  C  2 XZ   -0.219206   0.053198  -0.086916  -0.275726   1.882536
   50  C  2 YZ   -0.913112   0.260022  -0.347099   1.022625   0.137478
   51  H  3  S   -0.177497  -0.023835   0.046336  -0.151109  -0.024162
   52  H  3  S    2.338664  -3.978102  -7.317552  -2.944544  -0.558982
   53  H  3  X   -0.005981   0.001665  -0.000440  -0.001623  -0.002169
[...]
 II,JST,KST,LST =  2  1  1  1 NREC =         1 INTLOC =    1
 II,JST,KST,LST =  3  1  1  1 NREC =         1 INTLOC =    1
 II,JST,KST,LST =  4  1  1  1 NREC =         1 INTLOC =    1
 II,JST,KST,LST =  5  1  1  1 NREC =         1 INTLOC =    1
 II,JST,KST,LST =  6  1  1  1 NREC =         1 INTLOC =    1
 II,JST,KST,LST =  7  1  1  1 NREC =         1 INTLOC =    4
 II,JST,KST,LST =  8  1  1  1 NREC =         1 INTLOC =   49
 II,JST,KST,LST =  9  1  1  1 NREC =         1 INTLOC =   49
 II,JST,KST,LST = 10  1  1  1 NREC =         1 INTLOC =   64
 II,JST,KST,LST = 11  1  1  1 NREC =         1 INTLOC =  102
 II,JST,KST,LST = 12  1  1  1 NREC =         1 INTLOC =  102
 II,JST,KST,LST = 13  1  1  1 NREC =         1 INTLOC =  468
 II,JST,KST,LST = 14  1  1  1 NREC =         1 INTLOC = 1380
 II,JST,KST,LST = 15  1  1  1 NREC =         1 INTLOC = 1380
 II,JST,KST,LST = 16  1  1  1 NREC =         1 INTLOC = 1380
 II,JST,KST,LST = 17  1  1  1 NREC =         1 INTLOC = 1380
 II,JST,KST,LST = 18  1  1  1 NREC =         1 INTLOC = 2223
 II,JST,KST,LST = 19  1  1  1 NREC =         1 INTLOC = 4311
 II,JST,KST,LST = 20  1  1  1 NREC =         1 INTLOC = 5432
 II,JST,KST,LST = 21  1  1  1 NREC =         2 INTLOC = 3667
 II,JST,KST,LST = 22  1  1  1 NREC =         2 INTLOC = 3667
 II,JST,KST,LST = 23  1  1  1 NREC =         2 INTLOC =11923
 II,JST,KST,LST = 24  1  1  1 NREC =         3 INTLOC =  163
 II,JST,KST,LST = 25  1  1  1 NREC =         4 INTLOC = 6353
 II,JST,KST,LST = 26  1  1  1 NREC =         4 INTLOC = 6353
 II,JST,KST,LST = 27  1  1  1 NREC =         5 INTLOC = 8865
 II,JST,KST,LST = 28  1  1  1 NREC =         6 INTLOC =14053
 II,JST,KST,LST = 29  1  1  1 NREC =         7 INTLOC =11077
 II,JST,KST,LST = 30  1  1  1 NREC =         8 INTLOC = 6482
 II,JST,KST,LST = 31  1  1  1 NREC =         9 INTLOC = 1866
 II,JST,KST,LST = 32  1  1  1 NREC =        12 INTLOC = 5508
 II,JST,KST,LST = 33  1  1  1 NREC =        12 INTLOC =12615
 II,JST,KST,LST = 34  1  1  1 NREC =        13 INTLOC =11643
 II,JST,KST,LST = 35  1  1  1 NREC =        14 INTLOC =13409
 II,JST,KST,LST = 36  1  1  1 NREC =        15 INTLOC =11447
 II,JST,KST,LST = 37  1  1  1 NREC =        18 INTLOC = 4749
 II,JST,KST,LST = 38  1  1  1 NREC =        20 INTLOC =11722
 II,JST,KST,LST = 39  1  1  1 NREC =        20 INTLOC =11722
 II,JST,KST,LST = 40  1  1  1 NREC =        34 INTLOC = 1222
 II,JST,KST,LST = 41  1  1  1 NREC =        34 INTLOC = 1222
 II,JST,KST,LST = 42  1  1  1 NREC =        34 INTLOC = 1222
 II,JST,KST,LST = 43  1  1  1 NREC =        39 INTLOC =14967
 II,JST,KST,LST = 44  1  1  1 NREC =        42 INTLOC =13859
 II,JST,KST,LST = 45  1  1  1 NREC =        46 INTLOC = 3747
 II,JST,KST,LST = 46  1  1  1 NREC =        46 INTLOC =12530
 II,JST,KST,LST = 47  1  1  1 NREC =        54 INTLOC =14465
 II,JST,KST,LST = 48  1  1  1 NREC =        67 INTLOC =12377
 II,JST,KST,LST = 49  1  1  1 NREC =        67 INTLOC =12377
 II,JST,KST,LST = 50  1  1  1 NREC =        78 INTLOC = 1380
 II,JST,KST,LST = 51  1  1  1 NREC =        84 INTLOC =10900
 II,JST,KST,LST = 52  1  1  1 NREC =       105 INTLOC =11317
 II,JST,KST,LST = 53  1  1  1 NREC =       113 INTLOC = 7359
 II,JST,KST,LST = 54  1  1  1 NREC =       119 INTLOC = 6173
 II,JST,KST,LST = 55  1  1  1 NREC =       127 INTLOC =   63
 II,JST,KST,LST = 56  1  1  1 NREC =       133 INTLOC = 4357
 II,JST,KST,LST = 57  1  1  1 NREC =       155 INTLOC =10968
 II,JST,KST,LST = 58  1  1  1 NREC =       160 INTLOC =10981
 II,JST,KST,LST = 59  1  1  1 NREC =       162 INTLOC = 5810
 II,JST,KST,LST = 60  1  1  1 NREC =       177 INTLOC = 7720
 II,JST,KST,LST = 61  1  1  1 NREC =       185 INTLOC =10576
 II,JST,KST,LST = 62  1  1  1 NREC =       200 INTLOC = 1226
 II,JST,KST,LST = 63  1  1  1 NREC =       207 INTLOC = 6116
 II,JST,KST,LST = 64  1  1  1 NREC =       209 INTLOC =10264
 II,JST,KST,LST = 65  1  1  1 NREC =       233 INTLOC = 1019
 II,JST,KST,LST = 66  1  1  1 NREC =       236 INTLOC = 2179
 SCHWARZ INEQUALITY TEST SKIPPED       63931 INTEGRAL BLOCKS.
 TOTAL NUMBER OF NONZERO TWO-ELECTRON INTEGRALS =            66303205
       4429 INTEGRAL RECORDS WERE STORED ON DISK FILE  8.
  ...... END OF TWO-ELECTRON INTEGRALS .....
 CPU     0: STEP CPU TIME=     0.26 TOTAL CPU TIME=         23.8 (      0.4 MIN)
 TOTAL WALL CLOCK TIME=         24.2 SECONDS, CPU UTILIZATION IS    98.54%

          ---------------------------------------------
          MONOMER ELECTROSTATIC INTERACTION (OWN BASIS)
          ---------------------------------------------

          -------------
          GUESS OPTIONS
          -------------
          GUESS =MOSAVED           NORB  =       0          NORDER=       0
          MIX   =       F          PRTMO =       F          PUNMO =       F
          TOLZ  = 1.0E-08          TOLE  = 1.0E-05
          SYMDEN=       F          PURIFY=       F

 INITIAL GUESS ORBITALS GENERATED BY MOSAVED  ROUTINE.

 STATISTICS FOR GENERATION OF SYMMETRY ORBITAL -Q- MATRIX
 NUMBER OF CARTESIAN ATOMIC ORBITALS=        154
 NUMBER OF SPHERICAL CONTAMINANTS DROPPED=     8
 NUMBER OF LINEARLY DEPENDENT MOS DROPPED=     0
 TOTAL NUMBER OF MOS IN VARIATION SPACE=     146
 ...... END OF INITIAL ORBITAL SELECTION ......
 CPU     0: STEP CPU TIME=     0.01 TOTAL CPU TIME=         23.9 (      0.4 MIN)
 TOTAL WALL CLOCK TIME=         24.2 SECONDS, CPU UTILIZATION IS    98.54%

          ---------------------------
                  UHF SCF CALCULATION
          ---------------------------

 FINAL UHF ENERGY IS     -155.2980388999 AFTER   1 ITERATIONS
 ...... END OF UHF CALCULATION ......
 CPU     0: STEP CPU TIME=     0.07 TOTAL CPU TIME=         23.9 (      0.4 MIN)
 TOTAL WALL CLOCK TIME=         24.3 SECONDS, CPU UTILIZATION IS    98.50%

          -------------
          GUESS OPTIONS
          -------------
          GUESS =MOSAVED           NORB  =       0          NORDER=       0
          MIX   =       F          PRTMO =       F          PUNMO =       F
          TOLZ  = 1.0E-08          TOLE  = 1.0E-05
          SYMDEN=       F          PURIFY=       F

 INITIAL GUESS ORBITALS GENERATED BY MOSAVED  ROUTINE.

 STATISTICS FOR GENERATION OF SYMMETRY ORBITAL -Q- MATRIX
 NUMBER OF CARTESIAN ATOMIC ORBITALS=        154
 NUMBER OF SPHERICAL CONTAMINANTS DROPPED=     8
 NUMBER OF LINEARLY DEPENDENT MOS DROPPED=     0
 TOTAL NUMBER OF MOS IN VARIATION SPACE=     146
 ...... END OF INITIAL ORBITAL SELECTION ......
 CPU     0: STEP CPU TIME=     0.01 TOTAL CPU TIME=         23.9 (      0.4 MIN)
 TOTAL WALL CLOCK TIME=         24.3 SECONDS, CPU UTILIZATION IS    98.50%

          ---------------------------
                  UHF SCF CALCULATION
          ---------------------------

 DIRECT SCF CALCULATION, SCHWRZ=T   FDIFF=T
 SCHWARZ INEQUALITY OVERHEAD:     11926 INTEGRALS, T=        0.00

 FINAL UHF ENERGY IS     -331.0352565602 AFTER   1 ITERATIONS
 ...... END OF UHF CALCULATION ......
 CPU     0: STEP CPU TIME=     0.27 TOTAL CPU TIME=         24.2 (      0.4 MIN)
 TOTAL WALL CLOCK TIME=         24.6 SECONDS, CPU UTILIZATION IS    98.48%

 XEDA STEP ENERGY SUMMATION
 ETOT =       -155.29803890     ENUC =        102.30459312
 EEXCH=        -22.94472460

          --------------------------------------------------
          MONOMER EXCHANGE-REPULSION INTERACTION (OWN BASIS)
          --------------------------------------------------

          -------------
          GUESS OPTIONS
          -------------
          GUESS =MOSAVED           NORB  =       0          NORDER=       0
          MIX   =       F          PRTMO =       F          PUNMO =       F
          TOLZ  = 1.0E-08          TOLE  = 1.0E-05
          SYMDEN=       F          PURIFY=       F

 INITIAL GUESS ORBITALS GENERATED BY MOSAVED  ROUTINE.

 STATISTICS FOR GENERATION OF SYMMETRY ORBITAL -Q- MATRIX
 NUMBER OF CARTESIAN ATOMIC ORBITALS=        154
 NUMBER OF SPHERICAL CONTAMINANTS DROPPED=     8
 NUMBER OF LINEARLY DEPENDENT MOS DROPPED=     0
 TOTAL NUMBER OF MOS IN VARIATION SPACE=     146
 ...... END OF INITIAL ORBITAL SELECTION ......
 CPU     0: STEP CPU TIME=     0.01 TOTAL CPU TIME=         24.2 (      0.4 MIN)
 TOTAL WALL CLOCK TIME=         24.6 SECONDS, CPU UTILIZATION IS    98.48%

          ---------------------------
                  UHF SCF CALCULATION
          ---------------------------

 FINAL UHF ENERGY IS     -154.6275699578 AFTER   1 ITERATIONS
 ...... END OF UHF CALCULATION ......
 CPU     0: STEP CPU TIME=     0.07 TOTAL CPU TIME=         24.3 (      0.4 MIN)
 TOTAL WALL CLOCK TIME=         24.7 SECONDS, CPU UTILIZATION IS    98.44%

 XEDA STEP ENERGY SUMMATION
 ETOT =       -154.62756996     ENUC =        102.30459312

          ---------------------------------------------
          MONOMER ELECTROSTATIC INTERACTION (ALL BASIS)
          ---------------------------------------------

          -------------
          GUESS OPTIONS
          -------------
          GUESS =MOSAVED           NORB  =       0          NORDER=       0
          MIX   =       F          PRTMO =       F          PUNMO =       F
          TOLZ  = 1.0E-08          TOLE  = 1.0E-05
          SYMDEN=       F          PURIFY=       F

 INITIAL GUESS ORBITALS GENERATED BY MOSAVED  ROUTINE.

 STATISTICS FOR GENERATION OF SYMMETRY ORBITAL -Q- MATRIX
 NUMBER OF CARTESIAN ATOMIC ORBITALS=        154
 NUMBER OF SPHERICAL CONTAMINANTS DROPPED=     8
 NUMBER OF LINEARLY DEPENDENT MOS DROPPED=     0
 TOTAL NUMBER OF MOS IN VARIATION SPACE=     146
 ...... END OF INITIAL ORBITAL SELECTION ......
 CPU     0: STEP CPU TIME=     0.01 TOTAL CPU TIME=         24.3 (      0.4 MIN)
 TOTAL WALL CLOCK TIME=         24.7 SECONDS, CPU UTILIZATION IS    98.44%

          ---------------------------
                  UHF SCF CALCULATION
          ---------------------------

 FINAL UHF ENERGY IS     -155.3044252878 AFTER   1 ITERATIONS
 ...... END OF UHF CALCULATION ......
 CPU     0: STEP CPU TIME=     0.07 TOTAL CPU TIME=         24.4 (      0.4 MIN)
 TOTAL WALL CLOCK TIME=         24.8 SECONDS, CPU UTILIZATION IS    98.40%

          -------------
          GUESS OPTIONS
          -------------
          GUESS =MOSAVED           NORB  =       0          NORDER=       0
          MIX   =       F          PRTMO =       F          PUNMO =       F
          TOLZ  = 1.0E-08          TOLE  = 1.0E-05
          SYMDEN=       F          PURIFY=       F

 INITIAL GUESS ORBITALS GENERATED BY MOSAVED  ROUTINE.

 STATISTICS FOR GENERATION OF SYMMETRY ORBITAL -Q- MATRIX
 NUMBER OF CARTESIAN ATOMIC ORBITALS=        154
 NUMBER OF SPHERICAL CONTAMINANTS DROPPED=     8
 NUMBER OF LINEARLY DEPENDENT MOS DROPPED=     0
 TOTAL NUMBER OF MOS IN VARIATION SPACE=     146
 ...... END OF INITIAL ORBITAL SELECTION ......
 CPU     0: STEP CPU TIME=     0.01 TOTAL CPU TIME=         24.4 (      0.4 MIN)
 TOTAL WALL CLOCK TIME=         24.8 SECONDS, CPU UTILIZATION IS    98.40%

          ---------------------------
                  UHF SCF CALCULATION
          ---------------------------

 DIRECT SCF CALCULATION, SCHWRZ=T   FDIFF=T
 SCHWARZ INEQUALITY OVERHEAD:     11926 INTEGRALS, T=        0.00

 FINAL UHF ENERGY IS     -331.0570271704 AFTER   1 ITERATIONS
 ...... END OF UHF CALCULATION ......
 CPU     0: STEP CPU TIME=     0.27 TOTAL CPU TIME=         24.6 (      0.4 MIN)
 TOTAL WALL CLOCK TIME=         25.0 SECONDS, CPU UTILIZATION IS    98.39%

 XEDA STEP ENERGY SUMMATION
 ETOT =       -155.30442529     ENUC =        102.30459312
 EEXCH=        -22.94531083

          --------------------------------------------------
          MONOMER EXCHANGE-REPULSION INTERACTION (ALL BASIS)
          --------------------------------------------------

          -------------
          GUESS OPTIONS
          -------------
          GUESS =MOSAVED           NORB  =       0          NORDER=       0
          MIX   =       F          PRTMO =       F          PUNMO =       F
          TOLZ  = 1.0E-08          TOLE  = 1.0E-05
          SYMDEN=       F          PURIFY=       F

 INITIAL GUESS ORBITALS GENERATED BY MOSAVED  ROUTINE.

 STATISTICS FOR GENERATION OF SYMMETRY ORBITAL -Q- MATRIX
 NUMBER OF CARTESIAN ATOMIC ORBITALS=        154
 NUMBER OF SPHERICAL CONTAMINANTS DROPPED=     8
 NUMBER OF LINEARLY DEPENDENT MOS DROPPED=     0
 TOTAL NUMBER OF MOS IN VARIATION SPACE=     146
 ...... END OF INITIAL ORBITAL SELECTION ......
 CPU     0: STEP CPU TIME=     0.01 TOTAL CPU TIME=         24.6 (      0.4 MIN)
 TOTAL WALL CLOCK TIME=         25.1 SECONDS, CPU UTILIZATION IS    98.39%

          ---------------------------
                  UHF SCF CALCULATION
          ---------------------------

 FINAL UHF ENERGY IS     -154.6325089099 AFTER   1 ITERATIONS
 ...... END OF UHF CALCULATION ......
 CPU     0: STEP CPU TIME=     0.07 TOTAL CPU TIME=         24.7 (      0.4 MIN)
 TOTAL WALL CLOCK TIME=         25.1 SECONDS, CPU UTILIZATION IS    98.34%

 XEDA STEP ENERGY SUMMATION
 ETOT =       -154.63250891     ENUC =        102.30459312

          --------------------------------
          RESULTS OF INTERACTION ANALYSIS
          --------------------------------

     ENERGY TERMS
     T   ELECTRON KINETIC AND COULOMB POTENTIAL
     X   E-E EXCHANGE COMBINE WITH DIAGNANAL VALUE
     N   NUCLEUS-NUCLEUS REPULSION ENERGY

 --------------
 MONOMER ENERGY
 --------------

 MONOMER    1

                   OWN BASIS           ALL BASIS

 T              -93.94313618        -93.94337754
 X              -11.31326232        -11.31357724
 N               27.87878896         27.87878896
 EC              -0.47435349         -0.47483900
 E              -77.85196302        -77.85300482

 MONOMER    2

                   OWN BASIS           ALL BASIS

 T              -93.94311069        -93.94335102
 X              -11.31325881        -11.31357060
 N               27.87875879         27.87875879
 EC              -0.47435512         -0.47485426
 E              -77.85196584        -77.85301710

 ------------------------------------------------------------
 SUPER MOLECULE ENERGY  USING NON-ANTISYMMETRIC WAVEFUNCTION
 (ELECTROSTATIC ENERGY: T N CHANGE)
 ------------------------------------------------------------

              FROM OWN BASIS      FROM ALL BASIS
 T             -234.65790743       -234.66370757
 X              -22.62652113        -22.62714784
 N              102.30459312        102.30459312
 E             -154.97983543       -154.98626230

 ----------------------------------------------------------------------
 SUPER MOLECULE ENERGY  USING ANTISYMMETRIC NONORTHONORMAL WAVEFUNCTION
 (EXCHANGE ENERGY: ONLY X CHANGES)
 ----------------------------------------------------------------------

              FROM OWN BASIS      FROM ALL BASIS
 T             -234.65790743       -234.66370757
 X              -22.94472460        -22.94531083
 N              102.30459312        102.30459312
 E             -155.29803890       -155.30442529

 -----------------------------------------------------------------------
 SUPER MOLECULE ENERGY  USING ANTISYMMETRIC AND ORTHONORMAL WAVEFUNCTION
 (REPULSION ENERGY: T X CHANGE)
 -----------------------------------------------------------------------

              FROM OWN BASIS      FROM ALL BASIS
 T+X           -256.93216308       -256.93710203
 N              102.30459312        102.30459312
 E             -154.62756996       -154.63250891

 ---------------------------------------------
 SUPER MOLECULE ENERGY  USING SCF WAVEFUNCTION
 (POLARIZATION ENERGY: T X CHANGE)
 ---------------------------------------------
 T+X           -257.21299150
 N              102.30459312
 EC              -0.98577565
 E             -155.89417403


                   *******************************
                   SUMMARY OF INTERACTION ENERGIES
                     XEDA IN XIAMEN UNIVERSITY    
                    - ZHEN TANG AND PEIFENG SU -  
                   *******************************


 -------------
 OWN BASIS SET                                       HARTREE          KCAL/MOL
 -------------
 ELECTROSTATIC ENERGY                  ES=         -0.224615           -140.95
 EXCHANGE ENERGY                       EX=         -0.318203           -199.68
 REPULSION ENERGY                     REP=          0.670469            420.73
 POLARIZATION ENERGY                  POL=         -0.280828           -176.22
 ELECTRON CORRELATION                CORR=         -0.037067            -23.26
 TOTAL INTERACTION ENERGY               E=         -0.190245           -119.38
  

 -------------
 ALL BASIS SET                                       HARTREE          KCAL/MOL
 -------------
 ELECTROSTATIC ENERGY                  ES=         -0.229934           -144.29
 EXCHANGE ENERGY                       EX=         -0.318163           -199.65
 REPULSION ENERGY                     REP=          0.671916            421.63
 POLARIZATION ENERGY                  POL=         -0.275889           -173.12
 ELECTRON CORRELATION                CORR=         -0.036082            -22.64
 TOTAL INTERACTION ENERGY               E=         -0.188152           -118.07
  

                     ***************************
                     END OF INTERACTION ANALYSIS
                     ***************************

              1301896  WORDS OF DYNAMIC MEMORY USED
 EXECUTION OF GAMESS TERMINATED NORMALLY 14:31:52 25-DEC-2023    
 DDI: 263640 bytes (0.3 MB / 0 MWords) used by master data server.

 ----------------------------------------
 CPU timing information for all processes
 ========================================
 0: 24.55 + 0.672 = 24.728
 1: 23.822 + 0.524 = 24.346
 2: 23.825 + 0.586 = 24.411
 3: 23.801 + 0.521 = 24.322
 4: 23.897 + 0.576 = 24.474
 5: 23.884 + 0.530 = 24.415
 6: 23.831 + 0.527 = 24.359
 7: 23.781 + 0.494 = 24.275
 8: 23.854 + 0.639 = 24.494
 9: 23.788 + 0.507 = 24.296
 10: 23.839 + 0.538 = 24.377
 11: 23.792 + 0.502 = 24.295
 12: 23.826 + 0.531 = 24.357
 13: 23.753 + 0.539 = 24.292
 14: 23.741 + 0.565 = 24.306
 15: 23.747 + 0.547 = 24.294
 ----------------------------------------
 ddikick.x: exited gracefully.
----- accounting info -----
Files used on the master node w014 were:
-rw-r--r-- 1 xacs0647 10000  2703863 Dec 25 14:31 /job_dir/22_1685746/22.dat
-rw-r--r-- 1 xacs0647 10000      243 Dec 25 14:31 /job_dir/22_1685746/22.err
-rw-r--r-- 1 xacs0647 10000      837 Dec 25 14:31 /job_dir/22_1685746/22.F05
-rw-r--r-- 1 xacs0647 10000 46984176 Dec 25 14:31 /job_dir/22_1685746/22.F08
-rw-r--r-- 1 xacs0647 10000 48244288 Dec 25 14:31 /job_dir/22_1685746/22.F08.001
-rw-r--r-- 1 xacs0647 10000 50224464 Dec 25 14:31 /job_dir/22_1685746/22.F08.002
-rw-r--r-- 1 xacs0647 10000 48964352 Dec 25 14:31 /job_dir/22_1685746/22.F08.003
-rw-r--r-- 1 xacs0647 10000 53824784 Dec 25 14:31 /job_dir/22_1685746/22.F08.004
-rw-r--r-- 1 xacs0647 10000 54184816 Dec 25 14:31 /job_dir/22_1685746/22.F08.005
-rw-r--r-- 1 xacs0647 10000 50584496 Dec 25 14:31 /job_dir/22_1685746/22.F08.006
-rw-r--r-- 1 xacs0647 10000 50224464 Dec 25 14:31 /job_dir/22_1685746/22.F08.007
-rw-r--r-- 1 xacs0647 10000 54904880 Dec 25 14:31 /job_dir/22_1685746/22.F08.008
-rw-r--r-- 1 xacs0647 10000 44643968 Dec 25 14:31 /job_dir/22_1685746/22.F08.009
-rw-r--r-- 1 xacs0647 10000 53824784 Dec 25 14:31 /job_dir/22_1685746/22.F08.010
-rw-r--r-- 1 xacs0647 10000 45904080 Dec 25 14:31 /job_dir/22_1685746/22.F08.011
-rw-r--r-- 1 xacs0647 10000 49684416 Dec 25 14:31 /job_dir/22_1685746/22.F08.012
-rw-r--r-- 1 xacs0647 10000 53284736 Dec 25 14:31 /job_dir/22_1685746/22.F08.013
-rw-r--r-- 1 xacs0647 10000 43743888 Dec 25 14:31 /job_dir/22_1685746/22.F08.014
-rw-r--r-- 1 xacs0647 10000 48064272 Dec 25 14:31 /job_dir/22_1685746/22.F08.015
-rw-r--r-- 1 xacs0647 10000  5758720 Dec 25 14:31 /job_dir/22_1685746/22.F10
-rw-r--r-- 1 xacs0647 10000      837 Dec 25 14:31 /job_dir/22_1685746/22.inp
-rw-r--r-- 1 xacs0647 10000  2403470 Dec 25 14:31 /job_dir/22_1685746/22.out
Mon Dec 25 14:31:55 CST 2023
0.097u 0.051s 0:28.30 0.4%	0+0k 0+32io 0pf+0w
