----- GAMESS execution script 'rungms' -----
This job is running on host w017
under operating system Linux at Mon Dec 25 14:31:27 CST 2023
Available scratch disk space (Kbyte units) at beginning of the job is
Filesystem              1K-blocks    Used Available Use% Mounted on
/dev/mapper/system-root 932514944 2903304 929611640   1% /
GAMESS temporary binary files will be written to /job_dir/23_1685747
GAMESS supplementary output files will be written to /job_dir/23_1685747
Copying input file ./23.inp to your run's scratch directory...
 
Assuming a single but multicore node.
 

 Distributed Data Interface kickoff program.
 Initiating 16 compute processes on 1 nodes to run the following command:
 /share/apps/xeda-apps/xeda-td/gamess.00.x 23 

          *******************************************************
          *                                                     *
          *          GAMESS VERSION = 30 SEP 2020 (R2)          *
          *                                                     *
          *              doi.org/10.1063/5.0005188              *
          *                                                     *
          **************** 64 BIT LINUX VERSION *****************

  GAMESS HAS BEEN MADE POSSIBLE WITH IMPORTANT CONTRIBUTIONS FROM
  THE FOLLOWING INDIVIDUALS (IN ALPHABETICAL ORDER):

     IVANA ADAMOVIC, CHRISTINE AIKENS, TOMOKO AKAMA,
     YURI ALEXEEV, YURIKO AOKI, POOJA ARORA, TOSHIO ASADA,
     ANDREY ASADCHEV, KIM K. BALDRIDGE, PRADIPTA BANDYOPADHYAY,
     MARIA BARYSZ, ROB BELL, JONATHAN BENTZ, COLLEEN BERTONI,
     JERRY A. BOATZ, BRETT BODE, KURT BRORSEN, KURT R. BRORSEN,
     LAIMUTIS BYTAUTAS, CALEB CARLIN, LAURA CARRINGTON,
     GALINA CHABAN, BENOIT CHAMPAGNE, WEI CHEN, MAHITO CHIBA,
     DAN CHIPMAN, CHEOL HO CHOI, TANNER CULPITT,
     DIPAYAN DATTA, PAUL DAY, ALBERT DEFUSCO,
     NUWAN DESILVA, J. EMILIANO DEUSTUA,
     TIM DUDLEY, MICHEL DUPUIS, STEVEN T. ELBERT,
     DMITRI FEDOROV, ALEX FINDLATER, GRAHAM FLETCHER,
     MARK FREITAG, CHRISTIAN FRIEDL, DAVID GARMER,
     IGOR S. GERASIMOV, KURT GLAESEMANN, MARK S. GORDON,
     JEFFREY GOUR, FENG LONG GU, EMILIE B. GUIDEZ,
     ANASTASIA GUNINA, SHARON HAMMES-SCHIFFER, MASATAKE HARUTA,
     KIMIHIKO HIRAO, YASUHIRO IKABATA, TZVETELIN IORDANOV,
     STEPHAN IRLE, KAZUYA ISHIMURA, JOE IVANIC, FRANK JENSEN,
     JAN H. JENSEN, VISVALDAS KAIRYS, MUNEAKI KAMIYA,
     MICHIO KATOUDA, NAOAKI KAWAKAMI, DAN KEMP, BERNARD KIRTMAN,
     KAZUO KITAURA, MARIUSZ KLOBUKOWSKI, MASATO KOBAYASHI,
     PRAKASHAN KORAMBATH, JACEK KORCHOWIEC, SHIRO KOSEKI,
     KAROL KOWALSKI, JIMMY KROMANN, STANISLAW KUCHARSKI,
     HENRY KURTZ, SAROM SOK LEANG, HUI LI, SHUHUA LI, WEI LI,
     JESSE LUTZ, ALEKSANDR O. LYKHIN, MARCIN MAKOWSKI,
     JOANI MATO, NIKITA MATSUNAGA, BENEDETTA MENNUCCI,
     GRANT MERRILL, NORIYUKI MINEZAWA, VLADIMIR MIRONOV,
     EISAKU MIYOSHI, JOHN A. MONTGOMERY JR., HIROTOSHI MORI,
     JONATHAN MULLIN, MONIKA MUSIAL, SHIGERU NAGASE,
     TAKESHI NAGATA, HIROMI NAKAI, TAKAHITO NAKAJIMA,
     YUYA NAKAJIMA, HARUYUKI NAKANO, HIROYA NAKATA, SEAN NEDD,
     HEATHER NETZLOFF, KIET A. NGUYEN, YOSHIO NISHIMOTO,
     BOSILJKA NJEGIC, RYAN OLSON, MIKE PAK, ROBERTO PEVERATI,
     BUU PHAM, PIOTR PIECUCH, ANNA POMOGAEVA, DAVID POOLE,
     SPENCER PRUITT, OLIVIER QUINET, LUKE ROSKOP,
     KLAUS RUEDENBERG, ANDREW SAND, TOSAPORN SATTASATHUCHANA,
     NOZOMI SAWADA, MICHAEL W. SCHMIDT, PATRICK E. SCHNEIDER,
     JUNJI SEINO, PRACHI SHARMA, JUN SHEN, JIM SHOEMAKER,
     YINAN SHU, DEJUN SI, JONATHAN SKONE, LYUDMILA SLIPCHENKO,
     TONY SMITH, JIE SONG, MARK SPACKMAN, CASPER STEINMANN,
     WALT STEVENS, PEIFENG SU, SHUJUN SU, CHET SWALINA,
     TETSUYA TAKETSUGU, ZHEN TAO, NANDUN THELLAMUREGE
     SEIKEN TOKURA, JACOPO TOMASI, TSUGUKI TOUMA, TAKAO TSUNEDA,
     HIROAKI UMEDA, JORGE LUIS GALVEZ VALLEJO, YALI WANG,
     SIMON WEBB, AARON WEST, THERESA L. WINDUS, MARTA WLOCH,
     PENG XU, KIYOSHI YAGI, SUSUMU YANAGISAWA, YANG YANG,
     SOOHAENG YOO, TAKESHI YOSHIKAWA, FEDERICO ZAHARIEV,
     TOBY ZENG

  WHO ARE SUPPORTED BY THEIR INSTITUTION/UNIVERSITY/COMPANY/GROUP
  (IN ALPHABETICAL ORDER):

     EP ANALYTICS, FACULTES UNIVERSITAIRES NOTRE-DAME DE LA PAIX,
     INSTITUTE FOR MOLECULAR SCIENCE, IOWA STATE UNIVERSITY,
     JACKSON STATE UNIVERSITY, JOHANNES KEPLER UNIVERSITY LINZ,
     KYUSHU UNIVERSITY, MICHIGAN STATE UNIVERSITY,
     MIE UNIVERSITY, MOSCOW STATE UNIVERSITY,
     N. COPERNICUS UNIVERSITY, NAGOYA UNIVERSITY,
     NANJING UNIVERSITY, NAT. INST. OF ADVANCED INDUSTRIAL
     SCIENCE AND TECHNOLOGY, NATIONAL INST. OF STANDARDS AND
     TECHNOLOGY, NESMEYANOV INSTITUTE OF ORGANOELEMENT COMPOUNDS
     OF RUSSIAN ACADEMY OF SCIENCES, OSAKA PREFECTURE UNIVERSITY,
     PENNSYLVANIA STATE UNIVERSITY, TOKYO INSTITUTE OF TECHNOLOGY,
     UNIVERSITY OF AARHUS, UNIVERSITY OF ALBERTA,
     UNIVERSITY OF CALIFORNIA AT SANTA BARBARA,
     UNIVERSITY OF COPENHAGEN, UNIVERSITY OF IOWA,
     UNIVERSITY OF MEMPHIS, UNIVERSITY OF MINNESOTA,
     UNIVERSITY OF NEBRASKA, UNIVERSITY OF NEW ENGLAND,
     UNIVERSITY OF NOTRE DAME, UNIVERSITY OF PISA,
     UNIVERSITY OF SILESIA, UNIVERSITY OF TOKYO,
     UNIVERSITY OF ZURICH, WASEDA UNIVERSITY, YALE UNIVERSITY

  GAMESS SOFTWARE MANAGEMENT TEAM FOR THIS RELEASE:
     MARK S. GORDON (TEAM LEAD),
     BRETT BODE (SENIOR ADVISOR),
     GIUSEPPE BARCA,
     COLLEEN BERTONI,
     KRISTOPHER KEIPERT (ADVISOR),
     SAROM S. LEANG (DEVELOPMENT LEAD),
     BUU PHAM,
     JORGE LUIS GALVEZ VALLEJO (WEBSITE ADMINISTRATOR),
     PENG XU


 PARALLEL VERSION RUNNING ON       16 PROCESSORS IN        1 NODES.

 EXECUTION OF GAMESS BEGUN 14:31:27 25-DEC-2023    

            ECHO OF THE FIRST FEW INPUT CARDS -
 INPUT CARD> $CONTRL SCFTYP=UHF RUNTYP=EDA dfttyp=B3LYP ispher=1 icharg=0 mult=1 $END       
 INPUT CARD> $SYSTEM  mwords=150 memddi=150 $END                                            
 INPUT CARD> $BASIS gbasis=accd $END                                                        
 INPUT CARD> $LMOEDA MATOM(1)=5 5 MCHARG(1)=0 0 MMULT(1)=2 -2 edatyp=gks $end               
 INPUT CARD> $scf DIIS=.TRUE. ETHRSH=2.0 SWDIIS=0.005 $end                                  
 INPUT CARD> $data                                                                          
 INPUT CARD> EDA calculation with XEDA 1.0                                                  
 INPUT CARD> c1                                                                             
 INPUT CARD>C   6   -0.1901122546    0.6576253597   -1.7143537692                           
 INPUT CARD>C   6   -0.1901122546    0.6576253597   -0.3577781985                           
 INPUT CARD>H   1   -0.1002778601    1.6090605793    0.1814237736                           
 INPUT CARD>H   1   -0.2554533347   -0.2696324340   -2.2923867250                           
 INPUT CARD>H   1   -0.1382590379    1.5833293720   -2.2917681423                           
 INPUT CARD>C   6   -0.1901122546   -0.5805901914    0.4727050675                           
 INPUT CARD>C   6    0.5341079050   -0.7273269814    1.6103700461                           
 INPUT CARD>H   1    1.1246143204    0.0935119398    2.0295668230                           
 INPUT CARD>H   1    0.5506032907   -1.6668180654    2.1672411428                           
 INPUT CARD>H   1   -0.7498565625   -1.4367706742    0.0756249647                           
 INPUT CARD> $end                                                                           
  150000000 WORDS OF MEMORY AVAILABLE

     BASIS OPTIONS
     -------------
     GBASIS=ACCD         IGAUSS=       0      POLAR=NONE    
     NDFUNC=       0     NFFUNC=       0     DIFFSP=       F
     NPFUNC=       0      DIFFS=       F     BASNAM=        


     RUN TITLE
     ---------
  EDA calculation with XEDA 1.0                                                  

 THE POINT GROUP OF THE MOLECULE IS C1      
 THE ORDER OF THE PRINCIPAL AXIS IS     0

 ATOM      ATOMIC                      COORDINATES (BOHR)
           CHARGE         X                   Y                   Z
 C           6.0    -0.3592600681        1.2427317324       -3.2396588698
 C           6.0    -0.3592600681        1.2427317324       -0.6761027595
 H           1.0    -0.1894976782        3.0406835925        0.3428412198
 H           1.0    -0.4827368052       -0.5095314177       -4.3319827681
 H           1.0    -0.2612716970        2.9920586614       -4.3308138163
 C           6.0    -0.3592600681       -1.0971563729        0.8932830506
 C           6.0     1.0093175883       -1.3744486983        3.0431581260
 H           1.0     2.1252129074        0.1767119428        3.8353251692
 H           1.0     1.0404893474       -3.1498294150        4.0954919092
 H           1.0    -1.4170234332       -2.7151028814        0.1429104611

          INTERNUCLEAR DISTANCES (ANGS.)
          ------------------------------

                1 C          2 C          3 H          4 H          5 H     

   1 C       0.0000000    1.3565756 *  2.1230336 *  1.0946226 *  1.0922564 *
   2 C       1.3565756 *  0.0000000    1.0972866 *  2.1463426 *  2.1447456 *
   3 H       2.1230336 *  1.0972866 *  0.0000000    3.1101938    2.4736174 *
   4 H       1.0946226 *  2.1463426 *  3.1101938    0.0000000    1.8566643 *
   5 H       1.0922564 *  2.1447456 *  2.4736174 *  1.8566643 *  0.0000000  
   6 C       2.5132457 *  1.4909327 *  2.2107658 *  2.7832888 *  3.5110609  
   7 C       3.6737415    2.5132042 *  2.8112345 *  4.0080421    4.5845275  
   8 H       4.0079510    2.7831899 *  2.6856808 *  4.5514550    4.7421874  
   9 H       4.5845911    3.5110425    3.8856785    4.7423766    5.5606433  
  10 H       2.8113755 *  2.2108023 *  3.1161248    2.6859124 *  3.8858211  

                6 C          7 C          8 H          9 H         10 H     

   1 C       2.5132457 *  3.6737415    4.0079510    4.5845911    2.8113755 *
   2 C       1.4909327 *  2.5132042 *  2.7831899 *  3.5110425    2.2108023 *
   3 H       2.2107658 *  2.8112345 *  2.6856808 *  3.8856785    3.1161248  
   4 H       2.7832888 *  4.0080421    4.5514550    4.7423766    2.6859124 *
   5 H       3.5110609    4.5845275    4.7421874    5.5606433    3.8858211  
   6 C       0.0000000    1.3565796 *  2.1463313 *  2.1447618 *  1.0972836 *
   7 C       1.3565796 *  0.0000000    1.0946234 *  1.0922550 *  2.1230444 *
   8 H       2.1463313 *  1.0946234 *  0.0000000    1.8566649 *  3.1101921  
   9 H       2.1447618 *  1.0922550 *  1.8566649 *  0.0000000    2.4736564 *
  10 H       1.0972836 *  2.1230444 *  3.1101921    2.4736564 *  0.0000000  

  * ... LESS THAN  3.000


     ATOMIC BASIS SET
     ----------------
 THE CONTRACTED PRIMITIVE FUNCTIONS HAVE BEEN UNNORMALIZED
 THE CONTRACTED BASIS FUNCTIONS ARE NOW NORMALIZED TO UNITY

  SHELL TYPE  PRIMITIVE        EXPONENT          CONTRACTION COEFFICIENT(S)

 C         

      1   S       1          6665.0000000    0.000691583963
      1   S       2          1000.0000000    0.005325796153
      1   S       3           228.0000000    0.027060721042
      1   S       4            64.7100000    0.101656846141
      1   S       5            21.0600000    0.274574823617
      1   S       6             7.4950000    0.448294318924
      1   S       7             2.7970000    0.284902610715
      1   S       8             0.5215000    0.015194859206

      2   S       9          6665.0000000   -0.000293269653
      2   S      10          1000.0000000   -0.002318035474
      2   S      11           228.0000000   -0.011499786039
      2   S      12            64.7100000   -0.046826727010
      2   S      13            21.0600000   -0.128466168750
      2   S      14             7.4950000   -0.301266272463
      2   S      15             2.7970000   -0.255630702330
      2   S      16             0.5215000    1.093793361012

      3   S      17             0.1596000    1.000000000000

      4   P      18             9.4390000    0.056979251590
      4   P      19             2.0020000    0.313207211501
      4   P      20             0.5456000    0.760376741738

      5   P      21             0.1517000    1.000000000000

      6   D      22             0.5500000    1.000000000000

      7   S      23             0.0469000    1.000000000000

      8   P      24             0.0404100    1.000000000000

      9   D      25             0.1510000    1.000000000000

 C         

     10   S      26          6665.0000000    0.000691583963
     10   S      27          1000.0000000    0.005325796153
     10   S      28           228.0000000    0.027060721042
     10   S      29            64.7100000    0.101656846141
     10   S      30            21.0600000    0.274574823617
     10   S      31             7.4950000    0.448294318924
     10   S      32             2.7970000    0.284902610715
     10   S      33             0.5215000    0.015194859206

     11   S      34          6665.0000000   -0.000293269653
     11   S      35          1000.0000000   -0.002318035474
     11   S      36           228.0000000   -0.011499786039
     11   S      37            64.7100000   -0.046826727010
     11   S      38            21.0600000   -0.128466168750
     11   S      39             7.4950000   -0.301266272463
     11   S      40             2.7970000   -0.255630702330
     11   S      41             0.5215000    1.093793361012

     12   S      42             0.1596000    1.000000000000

     13   P      43             9.4390000    0.056979251590
     13   P      44             2.0020000    0.313207211501
     13   P      45             0.5456000    0.760376741738

     14   P      46             0.1517000    1.000000000000

     15   D      47             0.5500000    1.000000000000

     16   S      48             0.0469000    1.000000000000

     17   P      49             0.0404100    1.000000000000

     18   D      50             0.1510000    1.000000000000

 H         

     19   S      51            13.0100000    0.033498726390
     19   S      52             1.9620000    0.234800801174
     19   S      53             0.4446000    0.813682957883

     20   S      54             0.1220000    1.000000000000

     21   P      55             0.7270000    1.000000000000

     22   S      56             0.0297400    1.000000000000

     23   P      57             0.1410000    1.000000000000

 H         

     24   S      58            13.0100000    0.033498726390
     24   S      59             1.9620000    0.234800801174
     24   S      60             0.4446000    0.813682957883

     25   S      61             0.1220000    1.000000000000

     26   P      62             0.7270000    1.000000000000

     27   S      63             0.0297400    1.000000000000

     28   P      64             0.1410000    1.000000000000

 H         

     29   S      65            13.0100000    0.033498726390
     29   S      66             1.9620000    0.234800801174
     29   S      67             0.4446000    0.813682957883

     30   S      68             0.1220000    1.000000000000

     31   P      69             0.7270000    1.000000000000

     32   S      70             0.0297400    1.000000000000

     33   P      71             0.1410000    1.000000000000

 C         

     34   S      72          6665.0000000    0.000691583963
     34   S      73          1000.0000000    0.005325796153
     34   S      74           228.0000000    0.027060721042
     34   S      75            64.7100000    0.101656846141
     34   S      76            21.0600000    0.274574823617
     34   S      77             7.4950000    0.448294318924
     34   S      78             2.7970000    0.284902610715
     34   S      79             0.5215000    0.015194859206

     35   S      80          6665.0000000   -0.000293269653
     35   S      81          1000.0000000   -0.002318035474
     35   S      82           228.0000000   -0.011499786039
     35   S      83            64.7100000   -0.046826727010
     35   S      84            21.0600000   -0.128466168750
     35   S      85             7.4950000   -0.301266272463
     35   S      86             2.7970000   -0.255630702330
     35   S      87             0.5215000    1.093793361012

     36   S      88             0.1596000    1.000000000000

     37   P      89             9.4390000    0.056979251590
     37   P      90             2.0020000    0.313207211501
     37   P      91             0.5456000    0.760376741738

     38   P      92             0.1517000    1.000000000000

     39   D      93             0.5500000    1.000000000000

     40   S      94             0.0469000    1.000000000000

     41   P      95             0.0404100    1.000000000000

     42   D      96             0.1510000    1.000000000000

 C         

     43   S      97          6665.0000000    0.000691583963
     43   S      98          1000.0000000    0.005325796153
     43   S      99           228.0000000    0.027060721042
     43   S     100            64.7100000    0.101656846141
     43   S     101            21.0600000    0.274574823617
     43   S     102             7.4950000    0.448294318924
     43   S     103             2.7970000    0.284902610715
     43   S     104             0.5215000    0.015194859206

     44   S     105          6665.0000000   -0.000293269653
     44   S     106          1000.0000000   -0.002318035474
     44   S     107           228.0000000   -0.011499786039
     44   S     108            64.7100000   -0.046826727010
     44   S     109            21.0600000   -0.128466168750
     44   S     110             7.4950000   -0.301266272463
     44   S     111             2.7970000   -0.255630702330
     44   S     112             0.5215000    1.093793361012

     45   S     113             0.1596000    1.000000000000

     46   P     114             9.4390000    0.056979251590
     46   P     115             2.0020000    0.313207211501
     46   P     116             0.5456000    0.760376741738

     47   P     117             0.1517000    1.000000000000

     48   D     118             0.5500000    1.000000000000

     49   S     119             0.0469000    1.000000000000

     50   P     120             0.0404100    1.000000000000

     51   D     121             0.1510000    1.000000000000

 H         

     52   S     122            13.0100000    0.033498726390
     52   S     123             1.9620000    0.234800801174
     52   S     124             0.4446000    0.813682957883

     53   S     125             0.1220000    1.000000000000

     54   P     126             0.7270000    1.000000000000

     55   S     127             0.0297400    1.000000000000

     56   P     128             0.1410000    1.000000000000

 H         

     57   S     129            13.0100000    0.033498726390
     57   S     130             1.9620000    0.234800801174
     57   S     131             0.4446000    0.813682957883

     58   S     132             0.1220000    1.000000000000

     59   P     133             0.7270000    1.000000000000

     60   S     134             0.0297400    1.000000000000

     61   P     135             0.1410000    1.000000000000

 H         

     62   S     136            13.0100000    0.033498726390
     62   S     137             1.9620000    0.234800801174
     62   S     138             0.4446000    0.813682957883

     63   S     139             0.1220000    1.000000000000

     64   P     140             0.7270000    1.000000000000

     65   S     141             0.0297400    1.000000000000

     66   P     142             0.1410000    1.000000000000

 TOTAL NUMBER OF BASIS SET SHELLS             =   66
 NUMBER OF CARTESIAN GAUSSIAN BASIS FUNCTIONS =  154
 NOTE: THIS RUN WILL RESTRICT THE MO VARIATION SPACE TO SPHERICAL HARMONICS.
 THE NUMBER OF ORBITALS KEPT IN THE VARIATIONAL SPACE WILL BE PRINTED LATER.
 NUMBER OF ELECTRONS                          =   30
 CHARGE OF MOLECULE                           =    0
 SPIN MULTIPLICITY                            =    1
 NUMBER OF OCCUPIED ORBITALS (ALPHA)          =   15
 NUMBER OF OCCUPIED ORBITALS (BETA )          =   15
 TOTAL NUMBER OF ATOMS                        =   10
 THE NUCLEAR REPULSION ENERGY IS      102.3214006953

 SELECTED MURRAY-HANDY-LAMING RADIAL GRID

 LEGACY BECKE'S FUZZY CELL METHOD

 SELECTED ORIGINAL BECKE'S PARTITION FUNCTION

     LEBEDEV GRID-BASED DFT OPTIONS
     ------------------------------
     DFTTYP=B3LYP   
     NRAD  =      96     NLEB  =     302
     NRAD0 =      24     NLEB0 =     110
     SWOFF =    5.00E-03 (PURE SCF -> DFT)
     SWITCH=    3.00E-04 (COARSE -> TIGHT GRID)
     THRESH=    0.00E+00 GTHRE=    1.00E+00

 GRIMME'S EMPIRICAL DISPERSION CORRECTION= F

     $CONTRL OPTIONS
     ---------------
 SCFTYP=UHF          RUNTYP=LMOEDA       EXETYP=RUN     
 MPLEVL=       0     CITYP =NONE         CCTYP =NONE         VBTYP =NONE    
 DFTTYP=B3LYP        TDDFT =NONE    
 MULT  =       1     ICHARG=       0     NZVAR =       0     COORD =UNIQUE  
 PP    =NONE         RELWFN=NONE         LOCAL =NONE         NUMGRD=       F
 ISPHER=       1     NOSYM =       0     MAXIT =      30     UNITS =ANGS    
 PLTORB=       F     MOLPLT=       F     AIMPAC=       F     FRIEND=        
 NPRINT=       7     IREST =       0     GEOM  =INPUT   
 NORMF =       0     NORMP =       0     ITOL  =      20     ICUT  =       9
 INTTYP=BEST         GRDTYP=BEST         QMTTOL= 1.0E-06

     $SYSTEM OPTIONS
     ---------------
  REPLICATED MEMORY=   150000000 WORDS (ON EVERY NODE).
 DISTRIBUTED MEMDDI=         150 MILLION WORDS IN AGGREGATE,
 MEMDDI DISTRIBUTED OVER  16 PROCESSORS IS     9375000 WORDS/PROCESSOR.
 TOTAL MEMORY REQUESTED ON EACH PROCESSOR=   159375000 WORDS.
 TIMLIM=      525600.00 MINUTES, OR     365.0 DAYS.
 PARALL= T  BALTYP=  DLB     KDIAG=    0  COREFL= F
 MXSEQ2=     300 MXSEQ3=     150  mem10=         0  mem22=         0

 Using Gaussians for PCM contribution to MEP, params: 0.10000E+01 0.10000E-07

          ----------------
          PROPERTIES INPUT
          ----------------

     MOMENTS            FIELD           POTENTIAL          DENSITY
 IEMOM =       1   IEFLD =       0   IEPOT =       0   IEDEN =       0
 WHERE =COMASS     WHERE =NUCLEI     WHERE =NUCLEI     WHERE =NUCLEI  
 OUTPUT=BOTH       OUTPUT=BOTH       OUTPUT=BOTH       OUTPUT=BOTH    
 IEMINT=       0   IEFINT=       0                     IEDINT=       0
                                                       MORB  =       0
          EXTRAPOLATION IN EFFECT
          DIIS IN EFFECT
          DIIS or SOSCF will be reset if energy rises
 ORBITAL PRINTING OPTION: NPREO=     1   154     2     1

     -------------------------------
     INTEGRAL TRANSFORMATION OPTIONS
     -------------------------------
     NWORD  =            0
     CUTOFF = 1.0E-09     MPTRAN =       0
     DIRTRF =       F     AOINTS =DUP     

          -----------------------------
          LOCALIZATION INPUT PARAMETERS
          -----------------------------
           LOCAL=RUEDNBRG      NOUTA=       0
          PRTLOC=       F      NOUTB=       0
          MAXLOC=     250     CVGLOC=1.00E-06
           FCORE=       F     SYMLOC=       F
          MOIDON=       F     EDCOMP=       F
          DIPDCM=       F      NPROT=       0
          QADDCM=       F     DEPRNT=       F
          POLNUM=       F     ORIENT=       F
          POLDYN=       F      VMTOL=1.50E-01
          NPRDTL=       2     IBOYAL=       1

          ----------------------
          INTEGRAL INPUT OPTIONS
          ----------------------
 NOPK  =       1 NORDER=       0 SCHWRZ=       T

     ------------------------------------------
     THE POINT GROUP IS C1 , NAXIS= 0, ORDER= 1
     ------------------------------------------

 -- VARIATIONAL SPACE WILL BE RESTRICTED TO PURE SPHERICAL HARMONICS ONLY --
 AFTER EXCLUDING CONTAMINANT COMBINATIONS FROM THE CARTESIAN GAUSSIAN BASIS
 SET, THE NUMBER OF SPHERICAL HARMONICS KEPT IN THE VARIATION SPACE IS  146

     DIMENSIONS OF THE SYMMETRY SUBSPACES ARE
 A   =  146

 ..... DONE SETTING UP THE RUN .....
 CPU     0: STEP CPU TIME=     0.03 TOTAL CPU TIME=          0.0 (      0.0 MIN)
 TOTAL WALL CLOCK TIME=          0.0 SECONDS, CPU UTILIZATION IS    81.50%

          --------------
          GKSEDA OPTIONS
          --------------
          NMOL  =       2          EDATYP=GKS     
          SUPBAS=       T          RDVECM=       F          ITRTN =       T

 *******************
 GKSEDA IS BEGINNING
 *******************

 NMOL =  2

 MONOMER     ATOM   CHARGE ELECTRON MULTIPLE
 -------------------------------------------
       1        5        0       15        2
       2        5        0       15       -2
 -------------------------------------------

 SAVING MOL INFO REQUIRES    598670 WORDS OF MEMORY.

          ********************
          1 ELECTRON INTEGRALS
          ********************
 ...... END OF ONE-ELECTRON INTEGRALS ......
 CPU     0: STEP CPU TIME=     0.01 TOTAL CPU TIME=          0.0 (      0.0 MIN)
 TOTAL WALL CLOCK TIME=          0.0 SECONDS, CPU UTILIZATION IS    83.05%

          -------------
          GUESS OPTIONS
          -------------
          GUESS =HUCKEL            NORB  =       0          NORDER=       0
          MIX   =       F          PRTMO =       F          PUNMO =       F
          TOLZ  = 1.0E-08          TOLE  = 1.0E-05
          SYMDEN=       F          PURIFY=       F

 INITIAL GUESS ORBITALS GENERATED BY HUCKEL   ROUTINE.
 HUCKEL GUESS REQUIRES    180842 WORDS.

 STATISTICS FOR GENERATION OF SYMMETRY ORBITAL -Q- MATRIX
 NUMBER OF CARTESIAN ATOMIC ORBITALS=        154
 NUMBER OF SPHERICAL CONTAMINANTS DROPPED=     8
 NUMBER OF LINEARLY DEPENDENT MOS DROPPED=     0
 TOTAL NUMBER OF MOS IN VARIATION SPACE=     146

 SYMMETRIES FOR INITIAL GUESS ORBITALS FOLLOW.  ALPHA SET(S).
    15 ORBITALS ARE OCCUPIED (    4 CORE ORBITALS).
     5=A        6=A        7=A        8=A        9=A       10=A       11=A   
    12=A       13=A       14=A       15=A       16=A       17=A       18=A   
    19=A       20=A       21=A       22=A       23=A       24=A       25=A   

 SYMMETRIES FOR INITIAL GUESS ORBITALS FOLLOW.   BETA SET(S).
    15 ORBITALS ARE OCCUPIED (    4 CORE ORBITALS).
     5=A        6=A        7=A        8=A        9=A       10=A       11=A   
    12=A       13=A       14=A       15=A       16=A       17=A       18=A   
    19=A       20=A       21=A       22=A       23=A       24=A       25=A   
 ...... END OF INITIAL ORBITAL SELECTION ......
 CPU     0: STEP CPU TIME=     0.01 TOTAL CPU TIME=          0.1 (      0.0 MIN)
 TOTAL WALL CLOCK TIME=          0.1 SECONDS, CPU UTILIZATION IS    86.85%

          -------------------------
          MONOMER  1 WITH OWN BASIS
          -------------------------

     ------------------------------------------
     THE POINT GROUP IS C1 , NAXIS= 0, ORDER= 1
     ------------------------------------------

 -- VARIATIONAL SPACE WILL BE RESTRICTED TO PURE SPHERICAL HARMONICS ONLY --
 AFTER EXCLUDING CONTAMINANT COMBINATIONS FROM THE CARTESIAN GAUSSIAN BASIS
 SET, THE NUMBER OF SPHERICAL HARMONICS KEPT IN THE VARIATION SPACE IS   73

     DIMENSIONS OF THE SYMMETRY SUBSPACES ARE
 A   =   73

          ********************
          1 ELECTRON INTEGRALS
          ********************
 ...... END OF ONE-ELECTRON INTEGRALS ......
 CPU     0: STEP CPU TIME=     0.01 TOTAL CPU TIME=          0.1 (      0.0 MIN)
 TOTAL WALL CLOCK TIME=          0.1 SECONDS, CPU UTILIZATION IS    87.68%

          -------------
          GUESS OPTIONS
          -------------
          GUESS =HUCKEL            NORB  =       0          NORDER=       0
          MIX   =       F          PRTMO =       F          PUNMO =       F
          TOLZ  = 1.0E-08          TOLE  = 1.0E-05
          SYMDEN=       F          PURIFY=       F

 INITIAL GUESS ORBITALS GENERATED BY HUCKEL   ROUTINE.
 HUCKEL GUESS REQUIRES     47410 WORDS.

 STATISTICS FOR GENERATION OF SYMMETRY ORBITAL -Q- MATRIX
 NUMBER OF CARTESIAN ATOMIC ORBITALS=         77
 NUMBER OF SPHERICAL CONTAMINANTS DROPPED=     4
 NUMBER OF LINEARLY DEPENDENT MOS DROPPED=     0
 TOTAL NUMBER OF MOS IN VARIATION SPACE=      73

 SYMMETRIES FOR INITIAL GUESS ORBITALS FOLLOW.  ALPHA SET(S).
     8 ORBITALS ARE OCCUPIED (    2 CORE ORBITALS).
     3=A        4=A        5=A        6=A        7=A        8=A        9=A   
    10=A       11=A       12=A       13=A       14=A       15=A       16=A   
    17=A       18=A   

 SYMMETRIES FOR INITIAL GUESS ORBITALS FOLLOW.   BETA SET(S).
     7 ORBITALS ARE OCCUPIED (    2 CORE ORBITALS).
     3=A        4=A        5=A        6=A        7=A        8=A        9=A   
    10=A       11=A       12=A       13=A       14=A       15=A       16=A   
    17=A   
 ...... END OF INITIAL ORBITAL SELECTION ......
 CPU     0: STEP CPU TIME=     0.00 TOTAL CPU TIME=          0.1 (      0.0 MIN)
 TOTAL WALL CLOCK TIME=          0.1 SECONDS, CPU UTILIZATION IS    88.21%

                    ----------------------
                    AO INTEGRAL TECHNOLOGY
                    ----------------------
     S,P,L SHELL ROTATED AXIS INTEGRALS, REPROGRAMMED BY
        KAZUYA ISHIMURA (IMS) AND JOSE SIERRA (SYNSTAR).
     S,P,D,L SHELL ROTATED AXIS INTEGRALS PROGRAMMED BY
        KAZUYA ISHIMURA (INSTITUTE FOR MOLECULAR SCIENCE).
     S,P,D,F,G SHELL TO TOTAL QUARTET ANGULAR MOMENTUM SUM 5,
        ERIC PROGRAM BY GRAHAM FLETCHER (ELORET AND NASA ADVANCED
        SUPERCOMPUTING DIVISION, AMES RESEARCH CENTER).
     S,P,D,F,G,L SHELL GENERAL RYS QUADRATURE PROGRAMMED BY
        MICHEL DUPUIS (PACIFIC NORTHWEST NATIONAL LABORATORY).

          --------------------
          2 ELECTRON INTEGRALS
          --------------------

 THE -PK- OPTION IS OFF, THE INTEGRALS ARE NOT IN SUPERMATRIX FORM.
 STORING   15000 INTEGRALS/RECORD ON DISK, USING 12 BYTES/INTEGRAL.
 TWO ELECTRON INTEGRAL EVALUATION REQUIRES   90957 WORDS OF MEMORY.
 SCHWARZ INEQUALITY OVERHEAD:      3003 INTEGRALS, T=        0.00
 II,JST,KST,LST =  1  1  1  1 NREC =         1 INTLOC =    1
 II,JST,KST,LST =  2  1  1  1 NREC =         1 INTLOC =    1
 II,JST,KST,LST =  3  1  1  1 NREC =         1 INTLOC =    1
 II,JST,KST,LST =  4  1  1  1 NREC =         1 INTLOC =    1
 II,JST,KST,LST =  5  1  1  1 NREC =         1 INTLOC =    1
 II,JST,KST,LST =  6  1  1  1 NREC =         1 INTLOC =    1
 II,JST,KST,LST =  7  1  1  1 NREC =         1 INTLOC =    4
 II,JST,KST,LST =  8  1  1  1 NREC =         1 INTLOC =  250
 II,JST,KST,LST =  9  1  1  1 NREC =         1 INTLOC =  250
 II,JST,KST,LST = 10  1  1  1 NREC =         1 INTLOC =  250
 II,JST,KST,LST = 11  1  1  1 NREC =         1 INTLOC =  339
 II,JST,KST,LST = 12  1  1  1 NREC =         1 INTLOC =  765
 II,JST,KST,LST = 13  1  1  1 NREC =         1 INTLOC =  765
 II,JST,KST,LST = 14  1  1  1 NREC =         1 INTLOC = 4312
 II,JST,KST,LST = 15  1  1  1 NREC =         1 INTLOC = 4312
 II,JST,KST,LST = 16  1  1  1 NREC =         1 INTLOC = 4312
 II,JST,KST,LST = 17  1  1  1 NREC =         1 INTLOC = 5530
 II,JST,KST,LST = 18  1  1  1 NREC =         1 INTLOC = 6511
 II,JST,KST,LST = 19  1  1  1 NREC =         1 INTLOC = 8934
 II,JST,KST,LST = 20  1  1  1 NREC =         3 INTLOC = 3639
 II,JST,KST,LST = 21  1  1  1 NREC =         3 INTLOC = 3639
 II,JST,KST,LST = 22  1  1  1 NREC =         4 INTLOC =  263
 II,JST,KST,LST = 23  1  1  1 NREC =         4 INTLOC =13250
 II,JST,KST,LST = 24  1  1  1 NREC =         8 INTLOC =13820
 II,JST,KST,LST = 25  1  1  1 NREC =         8 INTLOC =13820
 II,JST,KST,LST = 26  1  1  1 NREC =         9 INTLOC = 2696
 II,JST,KST,LST = 27  1  1  1 NREC =         9 INTLOC =14720
 II,JST,KST,LST = 28  1  1  1 NREC =        11 INTLOC = 2161
 II,JST,KST,LST = 29  1  1  1 NREC =        11 INTLOC =14185
 II,JST,KST,LST = 30  1  1  1 NREC =        13 INTLOC = 1264
 II,JST,KST,LST = 31  1  1  1 NREC =        13 INTLOC =10814
 II,JST,KST,LST = 32  1  1  1 NREC =        16 INTLOC = 8419
 II,JST,KST,LST = 33  1  1  1 NREC =        16 INTLOC =13789
 SCHWARZ INEQUALITY TEST SKIPPED           0 INTEGRAL BLOCKS.
 TOTAL NUMBER OF NONZERO TWO-ELECTRON INTEGRALS =             3901604
        267 INTEGRAL RECORDS WERE STORED ON DISK FILE  8.
  ...... END OF TWO-ELECTRON INTEGRALS .....
 CPU     0: STEP CPU TIME=     0.03 TOTAL CPU TIME=          0.1 (      0.0 MIN)
 TOTAL WALL CLOCK TIME=          0.1 SECONDS, CPU UTILIZATION IS    88.00%

          ---------------------------
              U-B3LYP SCF CALCULATION
          ---------------------------

     NUCLEAR ENERGY =        27.8683372537
     MAXIT = 30     NPUNCH=  2     MULT=  2
     EXTRAP=T  DAMP=F  SHIFT=F  RSTRCT=F  DIIS=T  SOSCF=T
         DENSITY MATRIX CONVERGENCE THRESHOLD=  1.00E-05
     COARSE -> FINE DFT GRID SWITCH THRESHOLD=  3.00E-04 (SWITCH IN $DFT)
                   HF -> DFT SWITCH THRESHOLD=  5.00E-03 (SWOFF IN $DFT)
     SOSCF WILL OPTIMIZE     520 ALPHA AND     462 BETA ROTATION ANGLES.
     SOGTOL= 2.500E-01
     MEMORY REQUIRED FOR UHF/ROHF ITERS=    298732 WORDS.

     EXCHANGE FUNCTIONAL   =B88&HFX   
     CORRELATION FUNCTIONAL=LYP88&VWN5
     DFT THRESHOLD         =.690E-08
     GRID CHANGE THRESHOLD =.300E-03
 FOR AN EULER-MACLAURIN QUADRATURE USING  96 RADIAL POINTS:
 SMALLEST GAUSSIAN PRIMITIVE EXPONENT=        0.0297400000 OF TYPE -S-
 ON ATOM NUMBER   3 HAS RADIAL NORMALIZATION=  1.000000
  LARGEST GAUSSIAN PRIMITIVE EXPONENT=     6665.0000000000 OF TYPE -S-
 ON ATOM NUMBER   1 HAS RADIAL NORMALIZATION=  1.000000
 DFT IS SWITCHED OFF, PERFORMING PURE SCF UNTIL SWOFF THRESHOLD IS REACHED.

 ITER EX      TOTAL ENERGY        E CHANGE  DENSITY CHANGE    DIIS ERROR
          * * *   INITIATING DIIS PROCEDURE   * * *
   1  0      -77.1747096699   -77.1747096699   0.499901751   0.356947006
   2  1      -77.3686898546    -0.1939801848   0.154611936   0.054115040
   3  2      -77.3847362907    -0.0160464361   0.031161650   0.026018512
   4  3      -77.3891485385    -0.0044122477   0.022044237   0.011199764
   5  4      -77.3905398412    -0.0013913028   0.012862642   0.008559538
   6  5      -77.3911892650    -0.0006494237   0.024293490   0.008556961
   7  6      -77.3922565525    -0.0010672875   0.063682673   0.008309548
   8  7      -77.3946262443    -0.0023696917   0.112158638   0.006467962
   9  8      -77.3961844023    -0.0015581581   0.068495191   0.002090567
  10  9      -77.3957518808     0.0004325215   0.042717527   0.004138117
  11 10      -77.3962604509    -0.0005085701   0.007052573   0.000728075
  12 11      -77.3962750904    -0.0000146395   0.000704940   0.000101644
 CONVERGED TO SWOFF, SO DFT CALCULATION IS NOW SWITCHED ON.
          * * *   INITIATING DIIS PROCEDURE   * * *
  13 12      -77.8301057681    -0.4338306777   0.394413655   0.062295278
  14 13      -77.8467018694    -0.0165961013   0.062528026   0.016724063
  15 14      -77.8493811014    -0.0026792320   0.024690054   0.012037540
  16 15      -77.8508392841    -0.0014581828   0.050362043   0.007371838
  17 16      -77.8518190286    -0.0009797444   0.009149637   0.003426053
  18 17      -77.8519020722    -0.0000830436   0.005988783   0.001411467
  19 18      -77.8519219219    -0.0000198497   0.002023485   0.000278636
         SWDIIS THRESHOLD HAS BEEN REACHED: SWITCHING DIIS OFF.
          ---------------START SECOND ORDER SCF---------------
  20 19      -77.8519230833    -0.0000011614   0.000136878   0.000022211
  21 20      -77.8519230958    -0.0000000125   0.000156051   0.000023111
  22 21      -77.8519230965    -0.0000000006   0.000065955   0.000021686
  23 22      -77.8519231008    -0.0000000043   0.000008569   0.000002384
  24 23      -77.8519231009    -0.0000000001   0.000012238   0.000001916

          ----------------
          ENERGY CONVERGED
          ----------------
     TIME TO FORM FOCK OPERATORS=       1.2 SECONDS (       0.1 SEC/ITER)
     TIME TO SOLVE SCF EQUATIONS=       0.1 SECONDS (       0.0 SEC/ITER)

 FINAL U-B3LYP ENERGY IS      -77.8519231009 AFTER  24 ITERATIONS
 DFT EXCHANGE + CORRELATION ENERGY =        -9.5245567107
 TOTAL ELECTRON NUMBER             =        14.9999603927

          --------------------
          SPIN SZ   =    0.500
          S-SQUARED =    0.764
          --------------------

  ----- ALPHA SET ----- 

          ------------
          EIGENVECTORS
          ------------

                      1          2          3          4          5
                  -10.2292   -10.2020    -0.7669    -0.5782    -0.4643
                     A          A          A          A          A   
    1  C  1  S    0.012118   1.009647  -0.019644   0.011342  -0.002196
    2  C  1  S   -0.001517   0.022151   0.316342  -0.227085   0.000266
    3  C  1  S    0.040141  -0.073307   0.096287  -0.324488  -0.035874
    4  C  1  X    0.000000  -0.000030   0.000059   0.004072   0.021883
    5  C  1  Y   -0.000024   0.000000   0.007951   0.030653   0.339353
    6  C  1  Z   -0.001005  -0.000349   0.110593   0.207310  -0.210853
    7  C  1  X   -0.000119   0.000049   0.002000   0.001516  -0.000111
    8  C  1  Y   -0.001380  -0.000293   0.023356   0.027449  -0.015431
    9  C  1  Z    0.038579  -0.008966  -0.028816  -0.243609   0.039692
   10  C  1 XX    0.000220  -0.001616  -0.006307   0.001456  -0.001711
   11  C  1 YY    0.000857   0.000819  -0.007572  -0.011238   0.008534
   12  C  1 ZZ   -0.001077   0.000797   0.013878   0.009782  -0.006823
   13  C  1 XY    0.000045   0.000180  -0.000082  -0.000972   0.000521
   14  C  1 XZ    0.000038   0.000017  -0.000042   0.000272  -0.000171
   15  C  1 YZ    0.000474   0.000049   0.000201   0.002343  -0.006028
   16  C  1  S    0.015272  -0.033898   0.016674   0.138164  -0.061102
   17  C  1  X    0.000074   0.000080  -0.000278   0.000710  -0.003603
   18  C  1  Y    0.000759   0.000807  -0.003850   0.009231  -0.058280
   19  C  1  Z    0.006217  -0.003675  -0.001846   0.011698  -0.009104
   20  C  1 XX   -0.002136   0.004858   0.006272  -0.006566  -0.006358
   21  C  1 YY   -0.004448   0.001542  -0.008120   0.105498  -0.044894
   22  C  1 ZZ    0.006584  -0.006400   0.001848  -0.098931   0.051252
   23  C  1 XY   -0.000185  -0.000257  -0.000671   0.008920  -0.001535
   24  C  1 XZ   -0.000260  -0.000121   0.001763   0.000879   0.006738
   25  C  1 YZ   -0.003144  -0.001087   0.024617   0.019140   0.104307
   26  C  2  S    1.009985  -0.013694  -0.017107  -0.006462  -0.000348
   27  C  2  S    0.022725  -0.001370   0.307198   0.268951  -0.069955
   28  C  2  S   -0.089780   0.024547   0.252825   0.494310  -0.241362
   29  C  2  X    0.000105   0.000007   0.002648   0.010092   0.019584
   30  C  2  Y    0.000896   0.000106   0.024318   0.096884   0.255013
   31  C  2  Z   -0.000219   0.000913  -0.128181   0.119036   0.165446
   32  C  2  X   -0.000340  -0.000095  -0.004950  -0.006911   0.000087
   33  C  2  Y   -0.003179  -0.001127  -0.057040  -0.092735   0.008262
   34  C  2  Z    0.030640  -0.016904  -0.090878  -0.221645   0.063355
   35  C  2 XX   -0.000846   0.000673  -0.011412  -0.001372  -0.000410
   36  C  2 YY    0.000508   0.000642  -0.003937   0.009759   0.005712
   37  C  2 ZZ    0.000338  -0.001315   0.015349  -0.008387  -0.005302
   38  C  2 XY    0.000135   0.000003   0.000466   0.001008   0.000840
   39  C  2 XZ    0.000090   0.000007  -0.000437  -0.000015  -0.000411
   40  C  2 YZ    0.000886   0.000041  -0.006138  -0.001600  -0.009601
   41  C  2  S   -0.029048   0.019747  -0.019029  -0.118226   0.022498
   42  C  2  X   -0.000128  -0.000123  -0.000131  -0.002427   0.001003
   43  C  2  Y   -0.001410  -0.001326  -0.000189  -0.026877   0.017884
   44  C  2  Z    0.004233  -0.005760   0.006699   0.004764  -0.013491
   45  C  2 XX    0.005979  -0.001056  -0.006956   0.005777   0.001019
   46  C  2 YY    0.004310  -0.001753  -0.017548  -0.059409  -0.008280
   47  C  2 ZZ   -0.010289   0.002809   0.024504   0.053633   0.007261
   48  C  2 XY   -0.000161  -0.000060  -0.001711  -0.006321  -0.001834
   49  C  2 XZ   -0.000388  -0.000112   0.000557  -0.002150   0.000502
   50  C  2 YZ   -0.004265  -0.001169   0.008538  -0.022255   0.013145
   51  H  3  S   -0.000661  -0.000101   0.124165   0.258602   0.195744
   52  H  3  S    0.021423   0.007232   0.064588   0.272817   0.109936
   53  H  3  X    0.000158  -0.000006  -0.001169  -0.001668  -0.000757
   54  H  3  Y    0.001710  -0.000007  -0.012690  -0.016730  -0.005932
   55  H  3  Z    0.000740   0.000186  -0.011295  -0.009986  -0.005286
   56  H  3  S    0.001306   0.001927   0.003447   0.025963   0.010651
   57  H  3  X   -0.000728  -0.000214  -0.000482  -0.004855  -0.000530
   58  H  3  Y   -0.007685  -0.002221  -0.007615  -0.042210  -0.012039
   59  H  3  Z   -0.002021  -0.000915  -0.017412  -0.029644  -0.010951
   60  H  4  S   -0.000342  -0.000848   0.116471  -0.228871  -0.139695
   61  H  4  S    0.017696   0.021850  -0.010923  -0.217752  -0.195972
   62  H  4  X   -0.000017  -0.000112   0.001002  -0.001113   0.000013
   63  H  4  Y   -0.000208  -0.001540   0.014304  -0.016849   0.000691
   64  H  4  Z   -0.000617  -0.001020   0.012536  -0.005417  -0.009964
   65  H  4  S    0.001763   0.001996  -0.000039  -0.012696  -0.041427
   66  H  4  X    0.000336   0.000470  -0.000523  -0.001642  -0.003048
   67  H  4  Y    0.004807   0.006761  -0.009243  -0.020520  -0.048887
   68  H  4  Z    0.002438   0.003022   0.008687  -0.034351   0.011502
   69  H  5  S   -0.000188  -0.000916   0.126637  -0.203515   0.340453
   70  H  5  S    0.009307   0.018979   0.015766  -0.226934   0.434156
   71  H  5  X   -0.000003   0.000084  -0.000815   0.000935  -0.000446
   72  H  5  Y   -0.000081   0.001515  -0.014483   0.016625  -0.010187
   73  H  5  Z   -0.000420  -0.000944   0.011299  -0.004943   0.005054
   74  H  5  S    0.001705   0.001148   0.002367  -0.013985   0.045256
   75  H  5  X   -0.000128  -0.000337  -0.000186   0.000107  -0.004197
   76  H  5  Y   -0.002355  -0.005995   0.000364   0.020542  -0.072050
   77  H  5  Z    0.001984   0.002951  -0.001835  -0.053953   0.040889

                      6          7          8          9         10
                   -0.4139    -0.2851    -0.2731    -0.0197    -0.0019
                     A          A          A          A          A   
    1  C  1  S    0.000012   0.000001   0.000599  -0.000102  -0.002993
    2  C  1  S   -0.036460   0.006626   0.050181   0.000418   0.084514
    3  C  1  S   -0.169312   0.005670   0.023357   0.000510   0.345747
    4  C  1  X   -0.015213   0.389033  -0.043941   0.403054   0.001580
    5  C  1  Y   -0.256191  -0.036002  -0.131900  -0.024866   0.029244
    6  C  1  Z   -0.318918   0.011364   0.112749  -0.002963  -0.096079
    7  C  1  X    0.005281   0.214921  -0.018089   0.338048   0.001226
    8  C  1  Y    0.059730  -0.010266   0.032912  -0.022335   0.042025
    9  C  1  Z   -0.091351  -0.002812  -0.021798  -0.002330  -0.283241
   10  C  1 XX   -0.001074  -0.000017   0.000549  -0.000062   0.000906
   11  C  1 YY    0.010432  -0.000114  -0.000717  -0.000055  -0.002746
   12  C  1 ZZ   -0.009358   0.000132   0.000168   0.000117   0.001840
   13  C  1 XY    0.001101   0.000647   0.000087   0.000063  -0.000311
   14  C  1 XZ    0.001349   0.021751   0.000756  -0.029977   0.000143
   15  C  1 YZ    0.013688   0.001639   0.040462   0.002671   0.001395
   16  C  1  S   -0.038194   0.018042   0.157480   0.001272   1.299091
   17  C  1  X    0.003477   0.028675  -0.001683   0.562081  -0.003523
   18  C  1  Y    0.051358  -0.000442   0.020099  -0.034049   0.036664
   19  C  1  Z   -0.014734   0.004458   0.040091  -0.001665  -0.298540
   20  C  1 XX   -0.000111  -0.000059  -0.005536  -0.000128  -0.039264
   21  C  1 YY   -0.043720   0.002870   0.029112   0.000302   0.024222
   22  C  1 ZZ    0.043831  -0.002811  -0.023576  -0.000174   0.015042
   23  C  1 XY   -0.003088   0.004701   0.001923  -0.003246   0.004544
   24  C  1 XZ   -0.003021   0.003514  -0.002582  -0.041930   0.002769
   25  C  1 YZ   -0.052553  -0.002774  -0.035206   0.001102   0.027015
   26  C  2  S   -0.000878   0.000013  -0.000782  -0.000118  -0.002524
   27  C  2  S    0.031377  -0.016334  -0.150638   0.002188   0.055992
   28  C  2  S   -0.054571  -0.031620  -0.310543   0.006183   0.365484
   29  C  2  X    0.008096   0.442689  -0.005948  -0.410483   0.004046
   30  C  2  Y    0.033394   0.007487   0.474394   0.034024   0.043440
   31  C  2  Z    0.373652  -0.027810  -0.254920   0.004030   0.082478
   32  C  2  X   -0.004980   0.255846  -0.007779  -0.347348   0.009461
   33  C  2  Y   -0.065892  -0.000417   0.243217   0.031264   0.098323
   34  C  2  Z    0.045276  -0.022583  -0.221969   0.002217  -0.006541
   35  C  2 XX   -0.001499  -0.000174  -0.004713  -0.000160  -0.001718
   36  C  2 YY    0.010902  -0.000218  -0.000055   0.000005  -0.004845
   37  C  2 ZZ   -0.009403   0.000392   0.004767   0.000155   0.006563
   38  C  2 XY    0.001290  -0.000492   0.001012  -0.000072  -0.000276
   39  C  2 XZ    0.001443  -0.020184   0.003226  -0.032094  -0.000191
   40  C  2 YZ    0.017734   0.003023   0.020161   0.001717  -0.003579
   41  C  2  S   -0.014742  -0.027014  -0.260757   0.006987   0.871427
   42  C  2  X   -0.003010   0.031311  -0.001603  -0.513651   0.019781
   43  C  2  Y   -0.035775  -0.000634   0.024001   0.037394   0.189953
   44  C  2  Z   -0.015113   0.001476   0.007227   0.002411   0.147637
   45  C  2 XX   -0.004291   0.000778   0.006799   0.000968  -0.039258
   46  C  2 YY   -0.036416  -0.002253  -0.022750  -0.000907  -0.012887
   47  C  2 ZZ    0.040707   0.001475   0.015952  -0.000062   0.052145
   48  C  2 XY   -0.003958  -0.001557  -0.002261   0.008255   0.003189
   49  C  2 XZ   -0.001214  -0.007206  -0.000344  -0.037690   0.003124
   50  C  2 YZ   -0.017331  -0.000263  -0.012268   0.001064   0.033208
   51  H  3  S    0.231943   0.017118   0.195101  -0.005847   0.005364
   52  H  3  S    0.276945   0.022486   0.249109  -0.006017  -0.358513
   53  H  3  X   -0.000772   0.015594  -0.001203  -0.020866  -0.000968
   54  H  3  Y   -0.009221  -0.000776   0.006933   0.001695  -0.010620
   55  H  3  Z    0.001043  -0.001689  -0.015848   0.000174  -0.001575
   56  H  3  S    0.036725   0.001725   0.027558  -0.003456  -0.897996
   57  H  3  X   -0.003539   0.015050  -0.004001  -0.053459   0.003102
   58  H  3  Y   -0.038433  -0.002997  -0.017620   0.002840   0.031738
   59  H  3  Z   -0.036319  -0.003278  -0.029002  -0.000060   0.033071
   60  H  4  S    0.325580   0.010091   0.145537   0.001047   0.006954
   61  H  4  S    0.392051   0.012848   0.192985   0.003549  -0.404597
   62  H  4  X    0.000797   0.014314  -0.001364   0.021757   0.000644
   63  H  4  Y    0.009595  -0.001051  -0.000811  -0.001478   0.009620
   64  H  4  Z    0.003268   0.000431   0.005109  -0.000271   0.002105
   65  H  4  S    0.036008   0.002699   0.039753   0.008809  -0.640910
   66  H  4  X    0.004210   0.015737   0.000787   0.045357  -0.004136
   67  H  4  Y    0.055030   0.001811   0.035366  -0.002694  -0.063478
   68  H  4  Z    0.052518  -0.000025   0.003305  -0.001305  -0.016946
   69  H  5  S   -0.074255  -0.018116  -0.209458  -0.003979   0.003980
   70  H  5  S   -0.185221  -0.029208  -0.337006  -0.005649  -0.419046
   71  H  5  X   -0.000214   0.014281  -0.001388   0.022615  -0.000723
   72  H  5  Y   -0.003151  -0.000804  -0.000017  -0.001429  -0.012181
   73  H  5  Z   -0.010896  -0.000036   0.000274  -0.000010   0.003435
   74  H  5  S   -0.043264  -0.002431  -0.041706  -0.006167  -1.137469
   75  H  5  X    0.002498   0.012899   0.000873   0.052659   0.002219
   76  H  5  Y    0.051097   0.002801   0.043103  -0.003937   0.036297
   77  H  5  Z   -0.005851  -0.002750  -0.023029   0.000958  -0.024619

                     11         12         13         14         15
                    0.0149     0.0251     0.0627     0.0712     0.0791
                     A          A          A          A          A   
    1  C  1  S   -0.001244   0.002389   0.001035   0.007623   0.002853
    2  C  1  S    0.067708  -0.017082  -0.001402  -0.012348   0.043594
    3  C  1  S    0.184804  -0.129179  -0.054335  -0.388682   0.153827
    4  C  1  X   -0.004398  -0.006183  -0.171549   0.017218  -0.000498
    5  C  1  Y   -0.067171  -0.118532   0.013366   0.036141   0.011554
    6  C  1  Z   -0.036321   0.005020   0.001048   0.013984   0.054764
    7  C  1  X   -0.011934  -0.020550  -0.198432   0.026079   0.002192
    8  C  1  Y   -0.170388  -0.371358   0.018580   0.100611   0.010470
    9  C  1  Z   -0.273067   0.104982   0.002068   0.032523  -0.044601
   10  C  1 XX    0.002841  -0.003163  -0.000391  -0.007366  -0.006857
   11  C  1 YY    0.004850  -0.001743   0.000069   0.001082  -0.010869
   12  C  1 ZZ   -0.007691   0.004905   0.000322   0.006284   0.017726
   13  C  1 XY    0.000214   0.000074   0.000882   0.000584  -0.000266
   14  C  1 XZ   -0.000556  -0.000245  -0.006136  -0.000422   0.000236
   15  C  1 YZ   -0.004780  -0.003806  -0.000482  -0.010477   0.003021
   16  C  1  S    0.430063  -1.748007  -1.140204 -10.800731   1.496068
   17  C  1  X   -0.007977  -0.122773   0.629746  -0.040869  -0.036689
   18  C  1  Y   -0.199143  -1.937470   0.045521   0.435057  -0.487545
   19  C  1  Z   -0.533749  -0.373450  -0.476657  -4.815675  -1.571484
   20  C  1 XX   -0.010656   0.016352   0.004479   0.080126   0.022286
   21  C  1 YY    0.021825  -0.051215  -0.012205  -0.153082   0.016606
   22  C  1 ZZ   -0.011168   0.034863   0.007726   0.072956  -0.038892
   23  C  1 XY    0.003716  -0.004552  -0.025161  -0.016050  -0.001226
   24  C  1 XZ   -0.002562   0.006843  -0.041033   0.005789   0.008582
   25  C  1 YZ   -0.043140   0.099340   0.000710   0.003166   0.113469
   26  C  2  S   -0.001264  -0.000745  -0.000719  -0.005493   0.005509
   27  C  2  S   -0.073351   0.047865   0.003765   0.040826   0.030624
   28  C  2  S   -0.232462   0.243840   0.046967   0.429136   0.050196
   29  C  2  X   -0.008903  -0.003122  -0.128186  -0.000036   0.003921
   30  C  2  Y   -0.084661  -0.046070  -0.001355  -0.142506   0.060790
   31  C  2  Z   -0.027998   0.023269   0.001189   0.004585  -0.075842
   32  C  2  X   -0.017768   0.008319  -0.143485   0.025668  -0.014777
   33  C  2  Y   -0.159024   0.092898   0.030445   0.114088  -0.141376
   34  C  2  Z   -0.249618   0.149314   0.000310   0.043908  -0.063964
   35  C  2 XX   -0.003370   0.001473  -0.000663   0.001465  -0.010063
   36  C  2 YY   -0.001792   0.002152   0.000815  -0.000613  -0.013429
   37  C  2 ZZ    0.005162  -0.003625  -0.000151  -0.000852   0.023492
   38  C  2 XY    0.000297  -0.000024  -0.003830   0.000111  -0.000353
   39  C  2 XZ    0.000580   0.000370   0.013325  -0.000940  -0.000439
   40  C  2 YZ    0.008189   0.007592  -0.000811   0.002015  -0.006690
   41  C  2  S   -0.495896   2.282984   1.148695  11.104986  -0.289461
   42  C  2  X   -0.056916   0.073606   0.587746  -0.041257   0.008388
   43  C  2  Y   -0.553688   1.020365  -0.072066   0.320666  -0.061965
   44  C  2  Z   -0.626141  -0.234475  -0.446426  -4.180374   1.876836
   45  C  2 XX    0.007352  -0.040578  -0.001436  -0.075467   0.062637
   46  C  2 YY   -0.062529   0.032379   0.000991   0.084072  -0.026573
   47  C  2 ZZ    0.055177   0.008199   0.000445  -0.008606  -0.036064
   48  C  2 XY   -0.007874   0.007053   0.040096   0.012723  -0.007565
   49  C  2 XZ   -0.006178   0.007469   0.015703   0.004265   0.007566
   50  C  2 YZ   -0.072352   0.084456   0.003301   0.059392   0.082654
   51  H  3  S    0.016504   0.015043  -0.000843  -0.022704  -0.017496
   52  H  3  S    0.672009  -0.545953  -0.082056  -0.848078   0.215155
   53  H  3  X    0.000937  -0.000143   0.005804   0.000396  -0.000738
   54  H  3  Y    0.010257   0.000180   0.000372   0.009749  -0.008421
   55  H  3  Z    0.008223  -0.000465   0.000154   0.005314   0.007044
   56  H  3  S    2.557048  -1.425462   0.338820   3.479366  -0.155023
   57  H  3  X   -0.007958   0.013318  -0.037312   0.018451  -0.008462
   58  H  3  Y   -0.082743   0.132051   0.018879   0.134854  -0.084192
   59  H  3  Z   -0.021278   0.003603   0.016433   0.140848  -0.096846
   60  H  4  S   -0.009840   0.012692  -0.001382  -0.022967  -0.023575
   61  H  4  S   -0.445233  -0.452850   0.068568   0.590079  -0.344468
   62  H  4  X    0.000623   0.000324   0.003533  -0.000418   0.000188
   63  H  4  Y    0.007558   0.002775   0.000010  -0.000165   0.003607
   64  H  4  Z    0.007179   0.002836  -0.000733  -0.010569  -0.011297
   65  H  4  S   -2.032330  -3.115502   0.030289   0.442777  -1.129653
   66  H  4  X   -0.003188  -0.004262  -0.069559   0.010026  -0.001814
   67  H  4  Y   -0.059664  -0.052442   0.007674   0.031764  -0.011759
   68  H  4  Z   -0.007820  -0.053240   0.014614   0.145452   0.029430
   69  H  5  S    0.002727  -0.002539   0.001938   0.025550  -0.037930
   70  H  5  S   -0.160505   0.860181   0.046083   0.402713   0.096451
   71  H  5  X   -0.000050   0.000191   0.004177  -0.000404  -0.000386
   72  H  5  Y   -0.002486   0.004218  -0.000339  -0.001297  -0.006223
   73  H  5  Z    0.003268  -0.007298  -0.000329  -0.002370  -0.014337
   74  H  5  S   -0.493849   3.804019  -0.401437  -4.340906   0.579338
   75  H  5  X    0.003437  -0.003570  -0.031156   0.006545  -0.005218
   76  H  5  Y    0.063379  -0.091567  -0.001005  -0.001804  -0.090023
   77  H  5  Z    0.051660   0.068939   0.013971   0.100680   0.038482

                     16         17         18         19         20
                    0.1117     0.1126     0.1167     0.1280     0.1461
                     A          A          A          A          A   
    1  C  1  S    0.005398  -0.001545  -0.038936  -0.014800  -0.014985
    2  C  1  S   -0.061780   0.002816  -0.204385  -0.019382  -0.120529
    3  C  1  S   -1.010794   0.122624   0.332746   0.522820   0.524467
    4  C  1  X    0.032749   0.233842  -0.008312   0.010523   0.005995
    5  C  1  Y    0.110273  -0.026081  -0.084325   0.238201   0.037821
    6  C  1  Z    0.003807   0.000163   0.121310   0.001432   0.130771
    7  C  1  X   -0.008135   0.188734   0.009215  -0.065694   0.001484
    8  C  1  Y   -0.417904   0.028949   0.298551  -0.929125  -0.168854
    9  C  1  Z   -1.253169   0.097350  -1.541576  -0.371332   1.552053
   10  C  1 XX    0.001098   0.000551   0.019902   0.016170  -0.039090
   11  C  1 YY   -0.000205  -0.000248   0.003835  -0.007717   0.048344
   12  C  1 ZZ   -0.000893  -0.000303  -0.023738  -0.008453  -0.009254
   13  C  1 XY    0.000286   0.001206  -0.001101  -0.002487   0.006484
   14  C  1 XZ    0.001239  -0.007037  -0.000573   0.000711  -0.001543
   15  C  1 YZ    0.024103  -0.001738  -0.007447   0.009183  -0.016756
   16  C  1  S   -5.668807   0.707297   5.152378   5.248899   0.163719
   17  C  1  X   -0.244054  -2.217713   0.141476  -0.371964  -0.158551
   18  C  1  Y   -0.258679   0.177413   1.828194  -6.058527  -2.413385
   19  C  1  Z   -3.639135   0.357335  -1.896795   1.697086   0.570038
   20  C  1 XX    0.045510  -0.011760  -0.159927  -0.035590  -0.099647
   21  C  1 YY    0.186120  -0.005553   0.338304   0.194579  -0.659832
   22  C  1 ZZ   -0.231631   0.017313  -0.178376  -0.158989   0.759479
   23  C  1 XY    0.010531  -0.034165   0.035666   0.022339  -0.040999
   24  C  1 XZ   -0.009937  -0.055760   0.004904   0.021440   0.027615
   25  C  1 YZ   -0.060892   0.010078  -0.013240   0.333811   0.318572
   26  C  2  S    0.008402  -0.001903  -0.036169  -0.026056   0.024834
   27  C  2  S    0.111902  -0.013654  -0.113829  -0.098543   0.013571
   28  C  2  S    0.493973  -0.010815   1.277151   0.766376  -2.195520
   29  C  2  X   -0.007352  -0.240954   0.003105   0.002277  -0.011428
   30  C  2  Y    0.181816   0.000715  -0.009243   0.001435  -0.092731
   31  C  2  Z    0.058901  -0.005756  -0.085510  -0.008655  -0.067922
   32  C  2  X   -0.062402  -0.222041   0.016918   0.041078  -0.049265
   33  C  2  Y   -0.360580   0.071777   0.139339   0.396878  -0.514217
   34  C  2  Z   -1.382659   0.134509  -0.876657   0.132483   1.088045
   35  C  2 XX   -0.004698  -0.000098   0.005563   0.013312  -0.011808
   36  C  2 YY    0.006047   0.000216   0.002374  -0.007587   0.017726
   37  C  2 ZZ   -0.001349  -0.000118  -0.007937  -0.005725  -0.005918
   38  C  2 XY    0.000715  -0.005993   0.000103  -0.002031   0.002118
   39  C  2 XZ   -0.001498  -0.004013   0.000123  -0.001024  -0.000333
   40  C  2 YZ   -0.016007   0.001533   0.004156  -0.017100   0.001725
   41  C  2  S    4.116337  -0.348112   2.577590  -0.901029  -1.970871
   42  C  2  X   -0.034375   2.245386  -0.088134   0.260670   0.057195
   43  C  2  Y   -2.812536   0.148933  -0.722342   3.495635   0.679675
   44  C  2  Z   -4.213063   0.439394  -0.093813   2.245305   1.074695
   45  C  2 XX    0.005821   0.005234  -0.128094  -0.070302  -0.022861
   46  C  2 YY   -0.307398   0.022684  -0.126730   0.039735   0.195196
   47  C  2 ZZ    0.301577  -0.027918   0.254824   0.030567  -0.172335
   48  C  2 XY   -0.028497   0.064702   0.001690   0.009453   0.016048
   49  C  2 XZ   -0.031243  -0.081708   0.011017   0.014202   0.018339
   50  C  2 YZ   -0.245336   0.033202   0.097666   0.144379   0.184483
   51  H  3  S   -0.021625  -0.001953   0.010293  -0.086887   0.103789
   52  H  3  S    2.253367  -0.285428  -0.567335  -1.777483   0.624842
   53  H  3  X   -0.001821  -0.000348   0.001067   0.001127  -0.000749
   54  H  3  Y   -0.019577   0.002611   0.011618   0.010885  -0.008298
   55  H  3  Z   -0.012152   0.001675  -0.001727   0.015091  -0.005275
   56  H  3  S    6.176443  -0.674486   0.089201  -3.833447  -0.751805
   57  H  3  X   -0.065776  -0.112105   0.025111   0.030247   0.009339
   58  H  3  Y   -0.608638   0.081042   0.253227   0.278917   0.212361
   59  H  3  Z   -0.387776   0.046068   0.071964   0.159732  -0.141330
   60  H  4  S    0.028836  -0.002895  -0.002854  -0.056951   0.098678
   61  H  4  S   -1.079147   0.056692  -1.671893  -3.127501   0.729977
   62  H  4  X   -0.000879  -0.000260  -0.000687  -0.001581  -0.001383
   63  H  4  Y   -0.010890   0.000850  -0.009478  -0.022865  -0.023850
   64  H  4  Z   -0.009044   0.000710  -0.000938  -0.011100   0.005912
   65  H  4  S   -3.885636   0.350117  -0.745712  -5.136728  -1.943871
   66  H  4  X   -0.015619   0.090773  -0.033375  -0.038014  -0.024404
   67  H  4  Y   -0.332057   0.017315  -0.436493  -0.569654  -0.470839
   68  H  4  Z   -0.305992   0.019845  -0.206237  -0.569955   0.403660
   69  H  5  S   -0.020260  -0.001231  -0.017720  -0.021294   0.225808
   70  H  5  S   -0.064929  -0.049268  -2.727051   1.123105   2.821976
   71  H  5  X   -0.000357   0.001599   0.001474  -0.001106   0.000939
   72  H  5  Y   -0.007709   0.001183   0.026106  -0.016403   0.011471
   73  H  5  Z    0.000489  -0.000273  -0.013620   0.014711  -0.000286
   74  H  5  S   -1.284290   0.103714  -4.212448   6.581467   2.783523
   75  H  5  X    0.011027   0.121706   0.037172  -0.033571   0.019883
   76  H  5  Y   -0.000948  -0.000073   0.666223  -0.421103   0.141461
   77  H  5  Z    0.100922  -0.017704  -0.422299   0.168156   0.436135

                     21         22         23         24         25
                    0.1684     0.1952     0.2194     0.2532     0.2853
                     A          A          A          A          A   
    1  C  1  S    0.049075   0.018948   0.000504  -0.005359   0.009727
    2  C  1  S    0.158138   0.012565  -0.000648  -0.030689   0.137248
    3  C  1  S   -2.124692  -0.575648   0.014880   0.756607  -0.388544
    4  C  1  X   -0.000964   0.007466  -0.003134  -0.011145   0.000262
    5  C  1  Y   -0.066948   0.124223  -0.018104  -0.199490  -0.008236
    6  C  1  Z   -0.061763  -0.020563   0.000042   0.074833   0.015352
    7  C  1  X    0.003276   0.057004   0.069340  -0.015518  -0.004382
    8  C  1  Y   -0.096005   0.603137  -0.045077  -0.221120  -0.083406
    9  C  1  Z   -1.019302   1.219135   0.111946   0.759811  -2.385256
   10  C  1 XX    0.014449  -0.024619  -0.006136  -0.014945   0.023890
   11  C  1 YY   -0.005969   0.025412   0.005313   0.017105   0.073561
   12  C  1 ZZ   -0.008480  -0.000793   0.000823  -0.002161  -0.097451
   13  C  1 XY   -0.000736   0.004317  -0.046794   0.005356   0.003922
   14  C  1 XZ   -0.002876   0.002746   0.002497  -0.001675   0.000968
   15  C  1 YZ   -0.037772   0.037085  -0.002125  -0.031524   0.013333
   16  C  1  S  -18.225125 -20.812690  -1.199946 -10.374982  -2.369525
   17  C  1  X   -0.012689   0.157172  -0.021136  -0.111246   0.049284
   18  C  1  Y   -0.156767   2.470585  -0.036882  -1.737849   0.982778
   19  C  1  Z   -6.196613  -5.890889  -0.341923  -2.283492  -4.034122
   20  C  1 XX    0.179113   0.116927   0.017256   0.081117   0.270737
   21  C  1 YY    0.145339  -0.555046  -0.041203  -0.210473  -0.135429
   22  C  1 ZZ   -0.324452   0.438118   0.023946   0.129356  -0.135307
   23  C  1 XY   -0.002467  -0.055917   0.172198  -0.040435  -0.038120
   24  C  1 XZ    0.027841  -0.002931   0.019674   0.052180  -0.006025
   25  C  1 YZ    0.447122  -0.194012   0.042675   0.855826  -0.215912
   26  C  2  S   -0.045663  -0.017715  -0.000469  -0.004208  -0.034037
   27  C  2  S   -0.197781  -0.049188  -0.000651  -0.000435  -0.162911
   28  C  2  S    1.622673  -0.508832  -0.022697  -0.371528   0.611219
   29  C  2  X   -0.006856   0.010021   0.041661   0.020630   0.007653
   30  C  2  Y   -0.037694   0.061098   0.014701   0.287476   0.038662
   31  C  2  Z   -0.109171  -0.007775  -0.002503   0.021901   0.250576
   32  C  2  X   -0.010099   0.067372   0.236582   0.032945  -0.035882
   33  C  2  Y   -0.151685   0.783712   0.053067   0.386436  -0.413904
   34  C  2  Z   -1.211908   1.119129   0.102722   0.798730  -1.556785
   35  C  2 XX   -0.016027   0.012095  -0.002458   0.014608  -0.029304
   36  C  2 YY    0.011216   0.003769   0.003239  -0.021515  -0.021691
   37  C  2 ZZ    0.004812  -0.015864  -0.000781   0.006908   0.050996
   38  C  2 XY    0.003537  -0.001262  -0.021815  -0.002156  -0.000275
   39  C  2 XZ    0.001227  -0.004277  -0.009126   0.000887   0.000370
   40  C  2 YZ    0.018162  -0.052416   0.001710   0.010000   0.007258
   41  C  2  S   18.459181  20.952076   1.222134  11.021827   4.061182
   42  C  2  X   -0.158460  -0.075297   0.168956   0.112901  -0.100213
   43  C  2  Y   -1.670438  -1.007587  -0.006257   1.599724  -1.301366
   44  C  2  Z   -6.132160  -5.244740  -0.353651  -2.417868  -1.617252
   45  C  2 XX   -0.183972  -0.162094  -0.024919  -0.000256  -0.187121
   46  C  2 YY   -0.169194   0.196914   0.051423   0.199370  -0.179375
   47  C  2 ZZ    0.353166  -0.034820  -0.026505  -0.199114   0.366496
   48  C  2 XY    0.006977   0.034440  -0.252212   0.038676   0.001850
   49  C  2 XZ    0.022424   0.034802   0.115762   0.034167  -0.017872
   50  C  2 YZ    0.335802   0.276792   0.029476   0.613666  -0.332266
   51  H  3  S    0.177856  -0.179235  -0.003381  -0.091935   0.024019
   52  H  3  S   -0.263240  -3.003659  -0.280386  -2.928824   2.135552
   53  H  3  X    0.000962   0.000040   0.004119  -0.000707  -0.000314
   54  H  3  Y    0.013021  -0.002277  -0.000060  -0.003155  -0.002629
   55  H  3  Z    0.004983  -0.007268  -0.000224  -0.004713   0.012240
   56  H  3  S    3.150715   1.712725   0.170292   0.163989   2.689959
   57  H  3  X    0.062718   0.060960  -0.518974   0.021816  -0.096907
   58  H  3  Y    0.591595   0.624935   0.079806  -0.240849  -0.704151
   59  H  3  Z    0.159909  -0.197793   0.033064   0.216691  -0.242725
   60  H  4  S   -0.161125   0.216532  -0.003139   0.013714  -0.017793
   61  H  4  S   -0.619570   3.608399   0.004385  -0.754038  -1.152028
   62  H  4  X    0.001460  -0.000104   0.000661  -0.000072  -0.001022
   63  H  4  Y    0.019872   0.001864   0.000649  -0.000070  -0.015508
   64  H  4  Z    0.022095  -0.001448   0.001423   0.024463   0.008881
   65  H  4  S   -2.018494   0.906343  -0.033417  -0.457573  -0.904074
   66  H  4  X   -0.001053   0.008358   0.728150  -0.083919  -0.047116
   67  H  4  Y    0.136726   0.194299  -0.035503  -0.332284  -0.587721
   68  H  4  Z    0.220112   0.137911   0.027737   0.423911   0.847523
   69  H  5  S    0.029421  -0.054525   0.010047   0.155726  -0.047945
   70  H  5  S    1.529779   1.089600   0.259801   2.745900  -1.905471
   71  H  5  X   -0.000872   0.000212  -0.003087   0.001242   0.000888
   72  H  5  Y   -0.015759   0.001880   0.000591   0.016440   0.012600
   73  H  5  Z   -0.007968   0.016088  -0.001296  -0.017803   0.017667
   74  H  5  S   -1.438464  -3.070021  -0.145224   0.005368  -2.717322
   75  H  5  X   -0.011999   0.009592  -0.831226   0.060692   0.053941
   76  H  5  Y   -0.471641  -0.051861   0.025717  -0.032223   0.828647
   77  H  5  Z   -0.039084   0.605018  -0.005070  -0.518660   0.873360

                     26         27         28         29         30
                    0.3082     0.3148     0.3552     0.3773     0.4045
                     A          A          A          A          A   
    1  C  1  S    0.002333  -0.030430  -0.000683  -0.019904   0.040164
    2  C  1  S    0.010585  -0.128377   0.000551  -0.059179  -0.017055
    3  C  1  S   -0.094877   1.417983   0.043574   1.783491  -2.112060
    4  C  1  X   -0.057605  -0.018851  -0.245767   0.020924   0.004869
    5  C  1  Y    0.014167  -0.138237   0.016485   0.278562   0.054699
    6  C  1  Z    0.020748  -0.252172  -0.000900  -0.075772  -0.000529
    7  C  1  X   -0.347491   0.002160  -0.966112   0.204951   0.024844
    8  C  1  Y   -0.014759   0.221621   0.055130   3.098793   0.297138
    9  C  1  Z   -0.218953   2.287701   0.049608   1.738742  -1.806164
   10  C  1 XX   -0.002090  -0.026904   0.000725  -0.013543   0.018322
   11  C  1 YY    0.005987   0.001503  -0.001181   0.006442   0.008595
   12  C  1 ZZ   -0.003896   0.025401   0.000456   0.007100  -0.026917
   13  C  1 XY   -0.034392   0.000269   0.011090   0.000824  -0.000568
   14  C  1 XZ   -0.018145  -0.003195  -0.029542  -0.003120  -0.000593
   15  C  1 YZ    0.003846  -0.022984   0.002144  -0.050285  -0.010126
   16  C  1  S   -0.724150   5.220679   0.065797   0.094352  -6.273703
   17  C  1  X   -0.081362  -0.258297  -1.110391   0.309783   0.119633
   18  C  1  Y    0.324835  -3.593305   0.091365   4.839606   1.580758
   19  C  1  Z   -0.260612   1.486692   0.002747  -0.067519  -1.788281
   20  C  1 XX    0.080840  -0.079276  -0.033333  -0.079617   0.527880
   21  C  1 YY   -0.025221  -0.559794   0.000970  -0.332134   0.611909
   22  C  1 ZZ   -0.055619   0.639070   0.032363   0.411751  -1.139788
   23  C  1 XY    0.512259   0.000894  -0.226663  -0.029411  -0.015251
   24  C  1 XZ   -0.002376   0.087027   0.078335   0.012305   0.013685
   25  C  1 YZ   -0.096448   1.045487  -0.011410   0.297104   0.270873
   26  C  2  S   -0.003125   0.027358   0.000157   0.010181   0.032285
   27  C  2  S   -0.012355   0.108989   0.001142   0.028038  -0.012811
   28  C  2  S    0.151745  -1.545642  -0.046155  -0.550881  -0.274304
   29  C  2  X   -0.111774  -0.008845   0.045120   0.003041  -0.016104
   30  C  2  Y    0.006070   0.034933   0.001381   0.034590  -0.202758
   31  C  2  Z    0.003033   0.019331  -0.002502  -0.018533   0.034828
   32  C  2  X   -0.631273  -0.090246   0.447823   0.042184  -0.194664
   33  C  2  Y    0.107021  -0.496371   0.009175   0.191113  -2.249088
   34  C  2  Z   -0.258079   2.976637   0.055493   2.022387  -2.943910
   35  C  2 XX    0.002571   0.028881  -0.001370   0.007237   0.005298
   36  C  2 YY   -0.009766   0.050959   0.001336   0.011107  -0.020829
   37  C  2 ZZ    0.007195  -0.079840   0.000034  -0.018344   0.015531
   38  C  2 XY    0.034662   0.005035  -0.010175   0.000337  -0.003273
   39  C  2 XZ    0.024741   0.000006   0.015162   0.000463  -0.000766
   40  C  2 YZ   -0.000317  -0.021289  -0.000557   0.006294  -0.007319
   41  C  2  S    0.590193  -4.180255   0.044869   0.630770   0.718849
   42  C  2  X   -0.482142   0.185453   0.538683  -0.024121  -0.241503
   43  C  2  Y   -0.219407   2.623188  -0.015111  -0.632591  -2.739918
   44  C  2  Z   -0.405425   3.918908  -0.012124   0.600820  -1.905853
   45  C  2 XX   -0.079620   0.350327  -0.028197   0.147236   0.887084
   46  C  2 YY    0.022091   0.379685   0.040526   0.770580  -0.944790
   47  C  2 ZZ    0.057529  -0.730012  -0.012328  -0.917816   0.057706
   48  C  2 XY   -0.358848  -0.022287  -0.175490   0.054220  -0.190785
   49  C  2 XZ   -0.170035   0.086157   0.327194   0.046637   0.007637
   50  C  2 YZ   -0.086231   1.143444  -0.028278   0.723134   0.124045
   51  H  3  S    0.004592  -0.021291  -0.000641   0.054897  -0.034269
   52  H  3  S    0.264620  -2.936545  -0.107010  -3.295504   6.768719
   53  H  3  X    0.004924   0.000106   0.000133  -0.000029   0.000084
   54  H  3  Y   -0.000278  -0.000735  -0.000069   0.000456   0.002052
   55  H  3  Z    0.003257  -0.034517  -0.000122  -0.009487   0.008919
   56  H  3  S    0.332518  -2.885955  -0.008445  -0.563896   3.005733
   57  H  3  X    1.503583   0.219894  -0.386108   0.056919  -0.148951
   58  H  3  Y   -0.220162   1.020516   0.040635   0.478487  -1.419197
   59  H  3  Z    0.082829  -1.069841   0.029763   0.748644  -0.883926
   60  H  4  S    0.007832  -0.051357  -0.001454   0.026024   0.039057
   61  H  4  S    0.036584  -0.569889   0.012046   4.336436   0.154528
   62  H  4  X    0.004987  -0.000067  -0.011887   0.000412   0.000559
   63  H  4  Y   -0.000902  -0.000885   0.000600   0.004962   0.003897
   64  H  4  Z   -0.000372   0.004170  -0.000062   0.002792   0.000634
   65  H  4  S    0.096089  -1.323552   0.013620   4.143108   0.210316
   66  H  4  X    1.281268   0.112011   0.715587  -0.006021  -0.049145
   67  H  4  Y   -0.123704   0.135923  -0.043260  -0.091099  -0.293946
   68  H  4  Z   -0.059801   0.781406   0.012891   1.551327  -0.433638
   69  H  5  S   -0.000799   0.045175  -0.002515   0.009696   0.021858
   70  H  5  S   -0.253654   3.307162  -0.017767  -2.710166   0.524165
   71  H  5  X   -0.006398  -0.000057  -0.009994   0.001045  -0.000203
   72  H  5  Y    0.000339   0.008311   0.000564   0.014388   0.000594
   73  H  5  Z    0.003071  -0.032684   0.000172  -0.018135   0.001532
   74  H  5  S   -0.369772   3.647553  -0.048135  -3.864891  -0.956754
   75  H  5  X   -0.456482  -0.037251   1.618702  -0.038432   0.015519
   76  H  5  Y    0.095258  -0.540989  -0.098400  -0.388397  -0.218195
   77  H  5  Z   -0.008092   0.412787   0.006637  -0.912953  -0.195188

                     31         32         33         34         35
                    0.4383     0.4436     0.4483     0.4763     0.4833
                     A          A          A          A          A   
    1  C  1  S    0.065490   0.011305   0.004553   0.021057   0.004627
    2  C  1  S    0.030116  -0.049270  -0.002858  -0.025883   0.034240
    3  C  1  S   -4.221829   0.908031  -0.012771  -2.130726  -0.225626
    4  C  1  X    0.006392   0.043018  -0.245551  -0.017824  -0.049117
    5  C  1  Y    0.026528  -0.068221   0.010269  -0.131577  -0.050176
    6  C  1  Z    0.082544  -0.002677   0.017167  -0.016456   0.100173
    7  C  1  X    0.027198   0.385467  -1.755174  -0.287591  -0.254038
    8  C  1  Y   -0.610966   1.157362   0.559287  -3.553168   0.688557
    9  C  1  Z    5.943564   3.666618   0.768666  -0.809287   0.841151
   10  C  1 XX    0.017635  -0.008742  -0.000307  -0.012896   0.002674
   11  C  1 YY   -0.026259  -0.004948  -0.001776   0.012541  -0.001645
   12  C  1 ZZ    0.008625   0.013690   0.002083   0.000355  -0.001029
   13  C  1 XY   -0.003165   0.000992  -0.002144   0.001798  -0.005262
   14  C  1 XZ    0.000719  -0.000325   0.013908   0.000465  -0.031284
   15  C  1 YZ    0.020281   0.011380  -0.001046  -0.011986  -0.015422
   16  C  1  S   -6.846873  -3.824186  -1.211773   3.704617  -1.406618
   17  C  1  X    0.007014   0.283237  -1.102256  -0.086189   0.171560
   18  C  1  Y   -0.575090   1.587495   0.459045  -0.762475   0.244788
   19  C  1  Z    1.118937   0.222817  -0.000297   0.788354  -0.012688
   20  C  1 XX    0.573316   0.241975   0.126181  -0.459266   0.062243
   21  C  1 YY   -1.927875  -0.732325  -0.167316   0.469920   0.024665
   22  C  1 ZZ    1.354559   0.490351   0.041135  -0.010654  -0.086909
   23  C  1 XY   -0.173661  -0.127424   0.234022   0.108375  -0.321667
   24  C  1 XZ    0.028954  -0.263047   0.075970  -0.035116   1.352219
   25  C  1 YZ    0.590591  -2.603983  -0.430706  -0.129272  -0.477510
   26  C  2  S    0.062669   0.027748   0.004093   0.054550   0.000834
   27  C  2  S   -0.000269  -0.023619  -0.010722   0.015525  -0.035663
   28  C  2  S   -6.443022  -2.411829  -0.402686  -4.364789  -0.518454
   29  C  2  X    0.003701  -0.024918   0.254445  -0.001023  -0.243984
   30  C  2  Y    0.127490   0.065383  -0.005919  -0.136128   0.007595
   31  C  2  Z    0.028416  -0.082672   0.000418  -0.179901   0.065760
   32  C  2  X   -0.071322   0.204401   0.731421  -0.124936  -1.463069
   33  C  2  Y   -0.693994   3.175567   0.426479  -1.476285   0.250552
   34  C  2  Z    3.077306   2.739087   0.557697  -2.379531   0.742213
   35  C  2 XX    0.032841  -0.000878  -0.000542  -0.010155  -0.005201
   36  C  2 YY   -0.012300   0.026624   0.004699   0.016210   0.004481
   37  C  2 ZZ   -0.020541  -0.025746  -0.004157  -0.006056   0.000720
   38  C  2 XY   -0.004003   0.003469  -0.004009   0.002607   0.004825
   39  C  2 XZ   -0.001867   0.001629   0.015629   0.002220   0.002586
   40  C  2 YZ   -0.020457   0.054257   0.008177   0.012979   0.012486
   41  C  2  S   -0.743826   1.332934   0.564263  -4.773951   1.132136
   42  C  2  X   -0.003328  -0.145258   1.169278   0.012500  -0.509596
   43  C  2  Y    0.505887   0.048006  -0.112804  -0.253049   0.049876
   44  C  2  Z   -0.226471  -0.126850  -0.102110   0.156411  -0.104358
   45  C  2 XX    0.040978   0.219714   0.126973  -0.135085  -0.238291
   46  C  2 YY    0.520175   1.349336   0.094221   0.097528  -0.012346
   47  C  2 ZZ   -0.561153  -1.569051  -0.221194   0.037557   0.250637
   48  C  2 XY    0.015932   0.068906   0.668713   0.028571  -0.930140
   49  C  2 XZ   -0.004167   0.127445  -1.042271  -0.090586  -0.259756
   50  C  2 YZ   -0.381597  -0.828373  -0.008796  -0.361385   0.314461
   51  H  3  S   -0.092466   0.185039   0.032098   0.128089   0.061939
   52  H  3  S    1.186787  -3.156883  -0.609907   6.520512  -0.536830
   53  H  3  X   -0.001621  -0.000688   0.017187   0.003046  -0.021204
   54  H  3  Y   -0.018679   0.013264  -0.000041   0.029025   0.005211
   55  H  3  Z   -0.020597   0.025374   0.004530   0.003073   0.011466
   56  H  3  S   -0.042201  -0.204117  -0.022609   0.906847  -0.117197
   57  H  3  X   -0.012453   0.045282  -0.743191  -0.296045   1.365612
   58  H  3  Y   -0.419691  -0.195241   0.106305  -3.240974   0.131259
   59  H  3  Z   -0.086213   1.438532   0.178787  -0.989384  -0.570532
   60  H  4  S   -0.042493  -0.081815  -0.019162   0.015671  -0.070343
   61  H  4  S    6.228168   9.137879   2.041567  -5.721650   1.771174
   62  H  4  X    0.000556   0.001500  -0.016855  -0.000398   0.004635
   63  H  4  Y    0.007272  -0.018173  -0.001582   0.004123   0.001235
   64  H  4  Z   -0.006094  -0.011716  -0.000104  -0.000850   0.015434
   65  H  4  S    1.440150   1.838669   0.434275  -0.879737   0.215250
   66  H  4  X    0.072692  -0.031361   1.316443  -0.063006   0.178347
   67  H  4  Y    1.138421   2.945084   0.528907  -1.584697   0.419262
   68  H  4  Z    1.840874   0.098588   0.077964  -1.193697  -0.093244
   69  H  5  S   -0.176152   0.091600   0.014160   0.108609   0.048413
   70  H  5  S    9.063119  -2.620177  -0.498484   4.560438  -0.441528
   71  H  5  X   -0.000386   0.001676  -0.008006   0.001419  -0.012811
   72  H  5  Y   -0.006846  -0.005604  -0.000600   0.022179   0.006196
   73  H  5  Z    0.007224  -0.004174  -0.001228   0.003077  -0.004048
   74  H  5  S    1.534805  -0.518141  -0.136721   0.784752   0.042788
   75  H  5  X   -0.134504  -0.018695   0.440302  -0.173882   1.108865
   76  H  5  Y   -2.098384   1.500730   0.242014  -2.494255  -0.127432
   77  H  5  Z    1.143444   0.970775   0.076758   1.414476  -0.136900

                     36         37         38         39         40
                    0.4868     0.4935     0.5049     0.5566     0.5630
                     A          A          A          A          A   
    1  C  1  S    0.014778   0.103757  -0.026168   0.076867   0.018387
    2  C  1  S   -0.102466  -0.002643  -0.027739   0.021389   0.006890
    3  C  1  S   -1.845646  -8.188765   4.380077  -8.250753  -1.828183
    4  C  1  X   -0.012728   0.008587  -0.010086  -0.007180   0.071128
    5  C  1  Y    0.168169   0.000770  -0.109772  -0.062947  -0.009658
    6  C  1  Z   -0.221609   0.327356  -0.089426  -0.141327  -0.035966
    7  C  1  X   -0.228863  -0.016511  -0.548396  -0.276877   1.336893
    8  C  1  Y   -0.299375  -1.058687  -7.069350  -0.152764  -0.082611
    9  C  1  Z   -2.751349  -2.635814   1.432425  -1.576804  -0.580230
   10  C  1 XX   -0.010299   0.008894  -0.006289   0.025821   0.006931
   11  C  1 YY    0.013623   0.031584  -0.009175  -0.007494  -0.002881
   12  C  1 ZZ   -0.003324  -0.040478   0.015465  -0.018327  -0.004050
   13  C  1 XY    0.000339   0.001892  -0.000600  -0.003642   0.001847
   14  C  1 XZ   -0.004928   0.001649  -0.000607   0.010330  -0.054714
   15  C  1 YZ    0.053814  -0.003682   0.013579  -0.028204  -0.002012
   16  C  1  S    4.282953  -5.143068  -4.748051 -14.319192  -3.707502
   17  C  1  X    0.008735  -0.036856  -0.127123   0.010435   0.232149
   18  C  1  Y   -0.113801  -0.619690  -1.880821   0.908874   0.206670
   19  C  1  Z    0.365427  -0.231992  -0.968045  -4.739915  -1.228982
   20  C  1 XX   -0.291109   0.319513   0.551675  -0.091373   0.217972
   21  C  1 YY    0.571458   2.639527  -0.680202  -1.742641  -0.542459
   22  C  1 ZZ   -0.280349  -2.959040   0.128527   1.834015   0.324487
   23  C  1 XY   -0.017246   0.196852  -0.109113  -0.450136   1.536059
   24  C  1 XZ    0.486875  -0.073960   0.115208  -0.388220   2.139507
   25  C  1 YZ    0.701874   0.417025   0.270034   0.185419  -0.045961
   26  C  2  S   -0.007558  -0.088457  -0.030067  -0.049982  -0.012781
   27  C  2  S    0.085753  -0.083180  -0.009540   0.132195   0.028861
   28  C  2  S    2.398102  10.094159   2.677305   2.832900   0.844844
   29  C  2  X   -0.059102   0.012167  -0.006829   0.078711  -0.309227
   30  C  2  Y    0.074401  -0.026426  -0.016545  -0.001251   0.016251
   31  C  2  Z   -0.183644   0.179928  -0.002546  -0.083577  -0.017905
   32  C  2  X   -0.475114   0.206260   0.179618   0.295553  -1.403076
   33  C  2  Y   -0.489440   1.090446   3.250133   0.593805   0.137620
   34  C  2  Z   -3.021157  -3.012552   2.589254  -1.453569  -0.518890
   35  C  2 XX    0.009927  -0.049956   0.003436   0.010008   0.004750
   36  C  2 YY   -0.013127   0.004328   0.006791  -0.025615  -0.009170
   37  C  2 ZZ    0.003200   0.045628  -0.010227   0.015607   0.004420
   38  C  2 XY   -0.002211   0.004697   0.001017  -0.009752   0.025840
   39  C  2 XZ   -0.000866   0.000361   0.001726   0.004319  -0.032816
   40  C  2 YZ   -0.029890   0.007277   0.009764  -0.013840  -0.000970
   41  C  2  S   -4.130271   5.447803   5.732225  15.249465   3.991499
   42  C  2  X   -0.151962   0.063091   0.064484  -0.005788  -0.398317
   43  C  2  Y   -0.213188   0.468279   0.963916  -1.168866  -0.253209
   44  C  2  Z    0.346142  -0.731490  -0.695713  -3.721771  -0.987748
   45  C  2 XX    0.186078  -0.329915  -0.022748  -0.372735  -0.096132
   46  C  2 YY    0.320785  -0.534402   1.477608  -0.918196  -0.211859
   47  C  2 ZZ   -0.506863   0.864317  -1.454860   1.290931   0.307991
   48  C  2 XY   -0.270250   0.047612   0.065289  -0.063819   0.040038
   49  C  2 XZ   -0.242253   0.059541  -0.094238  -0.304960   1.876735
   50  C  2 YZ   -0.901157   0.250510  -0.340961   1.009283   0.149870
   51  H  3  S   -0.176000  -0.024363   0.046517  -0.150757  -0.026875
   52  H  3  S    2.319578  -3.952745  -7.303685  -2.882166  -0.621654
   53  H  3  X   -0.006896   0.002039  -0.000437  -0.001893  -0.002295
[...]
 II,JST,KST,LST =  2  1  1  1 NREC =         1 INTLOC =    1
 II,JST,KST,LST =  3  1  1  1 NREC =         1 INTLOC =    1
 II,JST,KST,LST =  4  1  1  1 NREC =         1 INTLOC =    1
 II,JST,KST,LST =  5  1  1  1 NREC =         1 INTLOC =    1
 II,JST,KST,LST =  6  1  1  1 NREC =         1 INTLOC =    1
 II,JST,KST,LST =  7  1  1  1 NREC =         1 INTLOC =    4
 II,JST,KST,LST =  8  1  1  1 NREC =         1 INTLOC =   49
 II,JST,KST,LST =  9  1  1  1 NREC =         1 INTLOC =   49
 II,JST,KST,LST = 10  1  1  1 NREC =         1 INTLOC = 1273
 II,JST,KST,LST = 11  1  1  1 NREC =         1 INTLOC = 1273
 II,JST,KST,LST = 12  1  1  1 NREC =         1 INTLOC = 1273
 II,JST,KST,LST = 13  1  1  1 NREC =         1 INTLOC = 1595
 II,JST,KST,LST = 14  1  1  1 NREC =         1 INTLOC = 2438
 II,JST,KST,LST = 15  1  1  1 NREC =         1 INTLOC = 2438
 II,JST,KST,LST = 16  1  1  1 NREC =         1 INTLOC = 2438
 II,JST,KST,LST = 17  1  1  1 NREC =         1 INTLOC = 4208
 II,JST,KST,LST = 18  1  1  1 NREC =         1 INTLOC = 7376
 II,JST,KST,LST = 19  1  1  1 NREC =         1 INTLOC = 7376
 II,JST,KST,LST = 20  1  1  1 NREC =         2 INTLOC = 1797
 II,JST,KST,LST = 21  1  1  1 NREC =         2 INTLOC = 1797
 II,JST,KST,LST = 22  1  1  1 NREC =         2 INTLOC = 1797
 II,JST,KST,LST = 23  1  1  1 NREC =         2 INTLOC = 5673
 II,JST,KST,LST = 24  1  1  1 NREC =         4 INTLOC =  449
 II,JST,KST,LST = 25  1  1  1 NREC =         4 INTLOC =  449
 II,JST,KST,LST = 26  1  1  1 NREC =         4 INTLOC = 8299
 II,JST,KST,LST = 27  1  1  1 NREC =         7 INTLOC = 5020
 II,JST,KST,LST = 28  1  1  1 NREC =         7 INTLOC = 5020
 II,JST,KST,LST = 29  1  1  1 NREC =         8 INTLOC = 1648
 II,JST,KST,LST = 30  1  1  1 NREC =         8 INTLOC =11207
 II,JST,KST,LST = 31  1  1  1 NREC =         9 INTLOC = 3384
 II,JST,KST,LST = 32  1  1  1 NREC =        12 INTLOC =14557
 II,JST,KST,LST = 33  1  1  1 NREC =        12 INTLOC =14557
 II,JST,KST,LST = 34  1  1  1 NREC =        18 INTLOC = 9615
 II,JST,KST,LST = 35  1  1  1 NREC =        18 INTLOC = 9615
 II,JST,KST,LST = 36  1  1  1 NREC =        20 INTLOC = 1898
 II,JST,KST,LST = 37  1  1  1 NREC =        20 INTLOC =10075
 II,JST,KST,LST = 38  1  1  1 NREC =        25 INTLOC =14993
 II,JST,KST,LST = 39  1  1  1 NREC =        30 INTLOC =10298
 II,JST,KST,LST = 40  1  1  1 NREC =        30 INTLOC =10298
 II,JST,KST,LST = 41  1  1  1 NREC =        36 INTLOC = 6245
 II,JST,KST,LST = 42  1  1  1 NREC =        41 INTLOC = 6050
 II,JST,KST,LST = 43  1  1  1 NREC =        51 INTLOC =11334
 II,JST,KST,LST = 44  1  1  1 NREC =        53 INTLOC = 3953
 II,JST,KST,LST = 45  1  1  1 NREC =        57 INTLOC = 2005
 II,JST,KST,LST = 46  1  1  1 NREC =        57 INTLOC = 2005
 II,JST,KST,LST = 47  1  1  1 NREC =        58 INTLOC =14239
 II,JST,KST,LST = 48  1  1  1 NREC =        70 INTLOC = 2203
 II,JST,KST,LST = 49  1  1  1 NREC =        92 INTLOC = 3013
 II,JST,KST,LST = 50  1  1  1 NREC =        99 INTLOC =10609
 II,JST,KST,LST = 51  1  1  1 NREC =       105 INTLOC =10863
 II,JST,KST,LST = 52  1  1  1 NREC =       140 INTLOC = 5926
 II,JST,KST,LST = 53  1  1  1 NREC =       141 INTLOC = 5944
 II,JST,KST,LST = 54  1  1  1 NREC =       146 INTLOC =12878
 II,JST,KST,LST = 55  1  1  1 NREC =       153 INTLOC = 1466
 II,JST,KST,LST = 56  1  1  1 NREC =       157 INTLOC = 2060
 II,JST,KST,LST = 57  1  1  1 NREC =       187 INTLOC =10434
 II,JST,KST,LST = 58  1  1  1 NREC =       187 INTLOC =10434
 II,JST,KST,LST = 59  1  1  1 NREC =       195 INTLOC = 2279
 II,JST,KST,LST = 60  1  1  1 NREC =       205 INTLOC = 1918
 II,JST,KST,LST = 61  1  1  1 NREC =       214 INTLOC =13997
 II,JST,KST,LST = 62  1  1  1 NREC =       229 INTLOC = 4092
 II,JST,KST,LST = 63  1  1  1 NREC =       240 INTLOC =10396
 II,JST,KST,LST = 64  1  1  1 NREC =       244 INTLOC = 1206
 II,JST,KST,LST = 65  1  1  1 NREC =       257 INTLOC = 9708
 II,JST,KST,LST = 66  1  1  1 NREC =       260 INTLOC =13886
 SCHWARZ INEQUALITY TEST SKIPPED       67708 INTEGRAL BLOCKS.
 TOTAL NUMBER OF NONZERO TWO-ELECTRON INTEGRALS =            66109052
       4416 INTEGRAL RECORDS WERE STORED ON DISK FILE  8.
  ...... END OF TWO-ELECTRON INTEGRALS .....
 CPU     0: STEP CPU TIME=     0.25 TOTAL CPU TIME=         23.6 (      0.4 MIN)
 TOTAL WALL CLOCK TIME=         24.0 SECONDS, CPU UTILIZATION IS    98.41%

          ---------------------------------------------
          MONOMER ELECTROSTATIC INTERACTION (OWN BASIS)
          ---------------------------------------------

          -------------
          GUESS OPTIONS
          -------------
          GUESS =MOSAVED           NORB  =       0          NORDER=       0
          MIX   =       F          PRTMO =       F          PUNMO =       F
          TOLZ  = 1.0E-08          TOLE  = 1.0E-05
          SYMDEN=       F          PURIFY=       F

 INITIAL GUESS ORBITALS GENERATED BY MOSAVED  ROUTINE.

 STATISTICS FOR GENERATION OF SYMMETRY ORBITAL -Q- MATRIX
 NUMBER OF CARTESIAN ATOMIC ORBITALS=        154
 NUMBER OF SPHERICAL CONTAMINANTS DROPPED=     8
 NUMBER OF LINEARLY DEPENDENT MOS DROPPED=     0
 TOTAL NUMBER OF MOS IN VARIATION SPACE=     146
 ...... END OF INITIAL ORBITAL SELECTION ......
 CPU     0: STEP CPU TIME=     0.01 TOTAL CPU TIME=         23.6 (      0.4 MIN)
 TOTAL WALL CLOCK TIME=         24.0 SECONDS, CPU UTILIZATION IS    98.41%

          ---------------------------
                  UHF SCF CALCULATION
          ---------------------------

 FINAL UHF ENERGY IS     -155.3040514730 AFTER   1 ITERATIONS
 ...... END OF UHF CALCULATION ......
 CPU     0: STEP CPU TIME=     0.08 TOTAL CPU TIME=         23.7 (      0.4 MIN)
 TOTAL WALL CLOCK TIME=         24.1 SECONDS, CPU UTILIZATION IS    98.35%

          -------------
          GUESS OPTIONS
          -------------
          GUESS =MOSAVED           NORB  =       0          NORDER=       0
          MIX   =       F          PRTMO =       F          PUNMO =       F
          TOLZ  = 1.0E-08          TOLE  = 1.0E-05
          SYMDEN=       F          PURIFY=       F

 INITIAL GUESS ORBITALS GENERATED BY MOSAVED  ROUTINE.

 STATISTICS FOR GENERATION OF SYMMETRY ORBITAL -Q- MATRIX
 NUMBER OF CARTESIAN ATOMIC ORBITALS=        154
 NUMBER OF SPHERICAL CONTAMINANTS DROPPED=     8
 NUMBER OF LINEARLY DEPENDENT MOS DROPPED=     0
 TOTAL NUMBER OF MOS IN VARIATION SPACE=     146
 ...... END OF INITIAL ORBITAL SELECTION ......
 CPU     0: STEP CPU TIME=     0.01 TOTAL CPU TIME=         23.7 (      0.4 MIN)
 TOTAL WALL CLOCK TIME=         24.1 SECONDS, CPU UTILIZATION IS    98.35%

          ---------------------------
                  UHF SCF CALCULATION
          ---------------------------

 DIRECT SCF CALCULATION, SCHWRZ=T   FDIFF=T
 SCHWARZ INEQUALITY OVERHEAD:     11926 INTEGRALS, T=        0.00

 FINAL UHF ENERGY IS     -331.0437994122 AFTER   1 ITERATIONS
 ...... END OF UHF CALCULATION ......
 CPU     0: STEP CPU TIME=     0.25 TOTAL CPU TIME=         23.9 (      0.4 MIN)
 TOTAL WALL CLOCK TIME=         24.3 SECONDS, CPU UTILIZATION IS    98.32%

 XEDA STEP ENERGY SUMMATION
 ETOT =       -155.30405147     ENUC =        102.32140070
 EEXCH=        -22.94717572

          --------------------------------------------------
          MONOMER EXCHANGE-REPULSION INTERACTION (OWN BASIS)
          --------------------------------------------------

          -------------
          GUESS OPTIONS
          -------------
          GUESS =MOSAVED           NORB  =       0          NORDER=       0
          MIX   =       F          PRTMO =       F          PUNMO =       F
          TOLZ  = 1.0E-08          TOLE  = 1.0E-05
          SYMDEN=       F          PURIFY=       F

 INITIAL GUESS ORBITALS GENERATED BY MOSAVED  ROUTINE.

 STATISTICS FOR GENERATION OF SYMMETRY ORBITAL -Q- MATRIX
 NUMBER OF CARTESIAN ATOMIC ORBITALS=        154
 NUMBER OF SPHERICAL CONTAMINANTS DROPPED=     8
 NUMBER OF LINEARLY DEPENDENT MOS DROPPED=     0
 TOTAL NUMBER OF MOS IN VARIATION SPACE=     146
 ...... END OF INITIAL ORBITAL SELECTION ......
 CPU     0: STEP CPU TIME=     0.01 TOTAL CPU TIME=         23.9 (      0.4 MIN)
 TOTAL WALL CLOCK TIME=         24.3 SECONDS, CPU UTILIZATION IS    98.32%

          ---------------------------
                  UHF SCF CALCULATION
          ---------------------------

 FINAL UHF ENERGY IS     -154.6257255774 AFTER   1 ITERATIONS
 ...... END OF UHF CALCULATION ......
 CPU     0: STEP CPU TIME=     0.08 TOTAL CPU TIME=         24.0 (      0.4 MIN)
 TOTAL WALL CLOCK TIME=         24.4 SECONDS, CPU UTILIZATION IS    98.26%

 XEDA STEP ENERGY SUMMATION
 ETOT =       -154.62572558     ENUC =        102.32140070

          ---------------------------------------------
          MONOMER ELECTROSTATIC INTERACTION (ALL BASIS)
          ---------------------------------------------

          -------------
          GUESS OPTIONS
          -------------
          GUESS =MOSAVED           NORB  =       0          NORDER=       0
          MIX   =       F          PRTMO =       F          PUNMO =       F
          TOLZ  = 1.0E-08          TOLE  = 1.0E-05
          SYMDEN=       F          PURIFY=       F

 INITIAL GUESS ORBITALS GENERATED BY MOSAVED  ROUTINE.

 STATISTICS FOR GENERATION OF SYMMETRY ORBITAL -Q- MATRIX
 NUMBER OF CARTESIAN ATOMIC ORBITALS=        154
 NUMBER OF SPHERICAL CONTAMINANTS DROPPED=     8
 NUMBER OF LINEARLY DEPENDENT MOS DROPPED=     0
 TOTAL NUMBER OF MOS IN VARIATION SPACE=     146
 ...... END OF INITIAL ORBITAL SELECTION ......
 CPU     0: STEP CPU TIME=     0.01 TOTAL CPU TIME=         24.0 (      0.4 MIN)
 TOTAL WALL CLOCK TIME=         24.4 SECONDS, CPU UTILIZATION IS    98.26%

          ---------------------------
                  UHF SCF CALCULATION
          ---------------------------

 FINAL UHF ENERGY IS     -155.3101747206 AFTER   1 ITERATIONS
 ...... END OF UHF CALCULATION ......
 CPU     0: STEP CPU TIME=     0.08 TOTAL CPU TIME=         24.1 (      0.4 MIN)
 TOTAL WALL CLOCK TIME=         24.5 SECONDS, CPU UTILIZATION IS    98.22%

          -------------
          GUESS OPTIONS
          -------------
          GUESS =MOSAVED           NORB  =       0          NORDER=       0
          MIX   =       F          PRTMO =       F          PUNMO =       F
          TOLZ  = 1.0E-08          TOLE  = 1.0E-05
          SYMDEN=       F          PURIFY=       F

 INITIAL GUESS ORBITALS GENERATED BY MOSAVED  ROUTINE.

 STATISTICS FOR GENERATION OF SYMMETRY ORBITAL -Q- MATRIX
 NUMBER OF CARTESIAN ATOMIC ORBITALS=        154
 NUMBER OF SPHERICAL CONTAMINANTS DROPPED=     8
 NUMBER OF LINEARLY DEPENDENT MOS DROPPED=     0
 TOTAL NUMBER OF MOS IN VARIATION SPACE=     146
 ...... END OF INITIAL ORBITAL SELECTION ......
 CPU     0: STEP CPU TIME=     0.01 TOTAL CPU TIME=         24.1 (      0.4 MIN)
 TOTAL WALL CLOCK TIME=         24.5 SECONDS, CPU UTILIZATION IS    98.22%

          ---------------------------
                  UHF SCF CALCULATION
          ---------------------------

 DIRECT SCF CALCULATION, SCHWRZ=T   FDIFF=T
 SCHWARZ INEQUALITY OVERHEAD:     11926 INTEGRALS, T=        0.00

 FINAL UHF ENERGY IS     -331.0655188282 AFTER   1 ITERATIONS
 ...... END OF UHF CALCULATION ......
 CPU     0: STEP CPU TIME=     0.26 TOTAL CPU TIME=         24.3 (      0.4 MIN)
 TOTAL WALL CLOCK TIME=         24.8 SECONDS, CPU UTILIZATION IS    98.22%

 XEDA STEP ENERGY SUMMATION
 ETOT =       -155.31017472     ENUC =        102.32140070
 EEXCH=        -22.94765877

          --------------------------------------------------
          MONOMER EXCHANGE-REPULSION INTERACTION (ALL BASIS)
          --------------------------------------------------

          -------------
          GUESS OPTIONS
          -------------
          GUESS =MOSAVED           NORB  =       0          NORDER=       0
          MIX   =       F          PRTMO =       F          PUNMO =       F
          TOLZ  = 1.0E-08          TOLE  = 1.0E-05
          SYMDEN=       F          PURIFY=       F

 INITIAL GUESS ORBITALS GENERATED BY MOSAVED  ROUTINE.

 STATISTICS FOR GENERATION OF SYMMETRY ORBITAL -Q- MATRIX
 NUMBER OF CARTESIAN ATOMIC ORBITALS=        154
 NUMBER OF SPHERICAL CONTAMINANTS DROPPED=     8
 NUMBER OF LINEARLY DEPENDENT MOS DROPPED=     0
 TOTAL NUMBER OF MOS IN VARIATION SPACE=     146
 ...... END OF INITIAL ORBITAL SELECTION ......
 CPU     0: STEP CPU TIME=     0.01 TOTAL CPU TIME=         24.4 (      0.4 MIN)
 TOTAL WALL CLOCK TIME=         24.8 SECONDS, CPU UTILIZATION IS    98.22%

          ---------------------------
                  UHF SCF CALCULATION
          ---------------------------

 FINAL UHF ENERGY IS     -154.6306839109 AFTER   1 ITERATIONS
 ...... END OF UHF CALCULATION ......
 CPU     0: STEP CPU TIME=     0.08 TOTAL CPU TIME=         24.4 (      0.4 MIN)
 TOTAL WALL CLOCK TIME=         24.9 SECONDS, CPU UTILIZATION IS    98.16%

 XEDA STEP ENERGY SUMMATION
 ETOT =       -154.63068391     ENUC =        102.32140070

          --------------------------------
          RESULTS OF INTERACTION ANALYSIS
          --------------------------------

     ENERGY TERMS
     T   ELECTRON KINETIC AND COULOMB POTENTIAL
     X   E-E EXCHANGE COMBINE WITH DIAGNANAL VALUE
     N   NUCLEUS-NUCLEUS REPULSION ENERGY

 --------------
 MONOMER ENERGY
 --------------

 MONOMER    1

                   OWN BASIS           ALL BASIS

 T              -93.93315799        -93.93335330
 X              -11.31273166        -11.31308928
 N               27.86833725         27.86833725
 EC              -0.47437070         -0.47489188
 E              -77.85192310        -77.85299721

 MONOMER    2

                   OWN BASIS           ALL BASIS

 T              -93.93312077        -93.93330539
 X              -11.31272344        -11.31308651
 N               27.86829108         27.86829108
 EC              -0.47437941         -0.47489881
 E              -77.85193255        -77.85299963

 ------------------------------------------------------------
 SUPER MOLECULE ENERGY  USING NON-ANTISYMMETRIC WAVEFUNCTION
 (ELECTROSTATIC ENERGY: T N CHANGE)
 ------------------------------------------------------------

              FROM OWN BASIS      FROM ALL BASIS
 T             -234.67827645       -234.68391665
 X              -22.62545510        -22.62617579
 N              102.32140070        102.32140070
 E             -154.98233086       -154.98869174

 ----------------------------------------------------------------------
 SUPER MOLECULE ENERGY  USING ANTISYMMETRIC NONORTHONORMAL WAVEFUNCTION
 (EXCHANGE ENERGY: ONLY X CHANGES)
 ----------------------------------------------------------------------

              FROM OWN BASIS      FROM ALL BASIS
 T             -234.67827645       -234.68391665
 X              -22.94717572        -22.94765877
 N              102.32140070        102.32140070
 E             -155.30405147       -155.31017472

 -----------------------------------------------------------------------
 SUPER MOLECULE ENERGY  USING ANTISYMMETRIC AND ORTHONORMAL WAVEFUNCTION
 (REPULSION ENERGY: T X CHANGE)
 -----------------------------------------------------------------------

              FROM OWN BASIS      FROM ALL BASIS
 T+X           -256.94712627       -256.95208461
 N              102.32140070        102.32140070
 E             -154.62572558       -154.63068391

 ---------------------------------------------
 SUPER MOLECULE ENERGY  USING SCF WAVEFUNCTION
 (POLARIZATION ENERGY: T X CHANGE)
 ---------------------------------------------
 T+X           -257.23170225
 N              102.32140070
 EC              -0.98623468
 E             -155.89653623


                   *******************************
                   SUMMARY OF INTERACTION ENERGIES
                     XEDA IN XIAMEN UNIVERSITY    
                    - ZHEN TANG AND PEIFENG SU -  
                   *******************************


 -------------
 OWN BASIS SET                                       HARTREE          KCAL/MOL
 -------------
 ELECTROSTATIC ENERGY                  ES=         -0.227225           -142.59
 EXCHANGE ENERGY                       EX=         -0.321721           -201.88
 REPULSION ENERGY                     REP=          0.678326            425.66
 POLARIZATION ENERGY                  POL=         -0.284576           -178.57
 ELECTRON CORRELATION                CORR=         -0.037485            -23.52
 TOTAL INTERACTION ENERGY               E=         -0.192681           -120.91
  

 -------------
 ALL BASIS SET                                       HARTREE          KCAL/MOL
 -------------
 ELECTROSTATIC ENERGY                  ES=         -0.232486           -145.89
 EXCHANGE ENERGY                       EX=         -0.321483           -201.73
 REPULSION ENERGY                     REP=          0.679491            426.39
 POLARIZATION ENERGY                  POL=         -0.279618           -175.46
 ELECTRON CORRELATION                CORR=         -0.036444            -22.87
 TOTAL INTERACTION ENERGY               E=         -0.190539           -119.57
  

                     ***************************
                     END OF INTERACTION ANALYSIS
                     ***************************

              1301896  WORDS OF DYNAMIC MEMORY USED
 EXECUTION OF GAMESS TERMINATED NORMALLY 14:31:52 25-DEC-2023    
 DDI: 263640 bytes (0.3 MB / 0 MWords) used by master data server.

 ----------------------------------------
 CPU timing information for all processes
 ========================================
 0: 23.760 + 0.681 = 24.442
 1: 23.559 + 0.528 = 24.87
 2: 23.547 + 0.571 = 24.118
 3: 23.622 + 0.506 = 24.129
 4: 23.641 + 0.583 = 24.224
 5: 23.621 + 0.538 = 24.159
 6: 23.620 + 0.603 = 24.223
 7: 23.647 + 0.495 = 24.143
 8: 23.610 + 0.609 = 24.220
 9: 23.593 + 0.555 = 24.149
 10: 23.602 + 0.556 = 24.159
 11: 23.575 + 0.508 = 24.83
 12: 23.596 + 0.578 = 24.175
 13: 23.567 + 0.512 = 24.80
 14: 23.554 + 0.586 = 24.140
 15: 23.577 + 0.552 = 24.129
 ----------------------------------------
 ddikick.x: exited gracefully.
----- accounting info -----
Files used on the master node w017 were:
-rw-r--r-- 1 xacs0647 10000  2703863 Dec 25 14:31 /job_dir/23_1685747/23.dat
-rw-r--r-- 1 xacs0647 10000      243 Dec 25 14:31 /job_dir/23_1685747/23.err
-rw-r--r-- 1 xacs0647 10000      837 Dec 25 14:31 /job_dir/23_1685747/23.F05
-rw-r--r-- 1 xacs0647 10000 49864432 Dec 25 14:31 /job_dir/23_1685747/23.F08
-rw-r--r-- 1 xacs0647 10000 42303760 Dec 25 14:31 /job_dir/23_1685747/23.F08.001
-rw-r--r-- 1 xacs0647 10000 44823984 Dec 25 14:31 /job_dir/23_1685747/23.F08.002
-rw-r--r-- 1 xacs0647 10000 50044448 Dec 25 14:31 /job_dir/23_1685747/23.F08.003
-rw-r--r-- 1 xacs0647 10000 48424304 Dec 25 14:31 /job_dir/23_1685747/23.F08.004
-rw-r--r-- 1 xacs0647 10000 52204640 Dec 25 14:31 /job_dir/23_1685747/23.F08.005
-rw-r--r-- 1 xacs0647 10000 47884256 Dec 25 14:31 /job_dir/23_1685747/23.F08.006
-rw-r--r-- 1 xacs0647 10000 55084896 Dec 25 14:31 /job_dir/23_1685747/23.F08.007
-rw-r--r-- 1 xacs0647 10000 52024624 Dec 25 14:31 /job_dir/23_1685747/23.F08.008
-rw-r--r-- 1 xacs0647 10000 56525024 Dec 25 14:31 /job_dir/23_1685747/23.F08.009
-rw-r--r-- 1 xacs0647 10000 48604320 Dec 25 14:31 /job_dir/23_1685747/23.F08.010
-rw-r--r-- 1 xacs0647 10000 46984176 Dec 25 14:31 /job_dir/23_1685747/23.F08.011
-rw-r--r-- 1 xacs0647 10000 48244288 Dec 25 14:31 /job_dir/23_1685747/23.F08.012
-rw-r--r-- 1 xacs0647 10000 46624144 Dec 25 14:31 /job_dir/23_1685747/23.F08.013
-rw-r--r-- 1 xacs0647 10000 45904080 Dec 25 14:31 /job_dir/23_1685747/23.F08.014
-rw-r--r-- 1 xacs0647 10000 59405280 Dec 25 14:31 /job_dir/23_1685747/23.F08.015
-rw-r--r-- 1 xacs0647 10000  5758720 Dec 25 14:31 /job_dir/23_1685747/23.F10
-rw-r--r-- 1 xacs0647 10000      837 Dec 25 14:31 /job_dir/23_1685747/23.inp
-rw-r--r-- 1 xacs0647 10000  2403468 Dec 25 14:31 /job_dir/23_1685747/23.out
Mon Dec 25 14:31:56 CST 2023
0.092u 0.164s 0:28.63 0.8%	0+0k 0+40io 0pf+0w
