----- GAMESS execution script 'rungms' -----
This job is running on host w013
under operating system Linux at Mon Dec 25 14:31:27 CST 2023
Available scratch disk space (Kbyte units) at beginning of the job is
Filesystem              1K-blocks    Used Available Use% Mounted on
/dev/mapper/system-root 932514944 2671884 929843060   1% /
GAMESS temporary binary files will be written to /job_dir/24_1685748
GAMESS supplementary output files will be written to /job_dir/24_1685748
Copying input file ./24.inp to your run's scratch directory...
 
Assuming a single but multicore node.
 

 Distributed Data Interface kickoff program.
 Initiating 16 compute processes on 1 nodes to run the following command:
 /share/apps/xeda-apps/xeda-td/gamess.00.x 24 

          *******************************************************
          *                                                     *
          *          GAMESS VERSION = 30 SEP 2020 (R2)          *
          *                                                     *
          *              doi.org/10.1063/5.0005188              *
          *                                                     *
          **************** 64 BIT LINUX VERSION *****************

  GAMESS HAS BEEN MADE POSSIBLE WITH IMPORTANT CONTRIBUTIONS FROM
  THE FOLLOWING INDIVIDUALS (IN ALPHABETICAL ORDER):

     IVANA ADAMOVIC, CHRISTINE AIKENS, TOMOKO AKAMA,
     YURI ALEXEEV, YURIKO AOKI, POOJA ARORA, TOSHIO ASADA,
     ANDREY ASADCHEV, KIM K. BALDRIDGE, PRADIPTA BANDYOPADHYAY,
     MARIA BARYSZ, ROB BELL, JONATHAN BENTZ, COLLEEN BERTONI,
     JERRY A. BOATZ, BRETT BODE, KURT BRORSEN, KURT R. BRORSEN,
     LAIMUTIS BYTAUTAS, CALEB CARLIN, LAURA CARRINGTON,
     GALINA CHABAN, BENOIT CHAMPAGNE, WEI CHEN, MAHITO CHIBA,
     DAN CHIPMAN, CHEOL HO CHOI, TANNER CULPITT,
     DIPAYAN DATTA, PAUL DAY, ALBERT DEFUSCO,
     NUWAN DESILVA, J. EMILIANO DEUSTUA,
     TIM DUDLEY, MICHEL DUPUIS, STEVEN T. ELBERT,
     DMITRI FEDOROV, ALEX FINDLATER, GRAHAM FLETCHER,
     MARK FREITAG, CHRISTIAN FRIEDL, DAVID GARMER,
     IGOR S. GERASIMOV, KURT GLAESEMANN, MARK S. GORDON,
     JEFFREY GOUR, FENG LONG GU, EMILIE B. GUIDEZ,
     ANASTASIA GUNINA, SHARON HAMMES-SCHIFFER, MASATAKE HARUTA,
     KIMIHIKO HIRAO, YASUHIRO IKABATA, TZVETELIN IORDANOV,
     STEPHAN IRLE, KAZUYA ISHIMURA, JOE IVANIC, FRANK JENSEN,
     JAN H. JENSEN, VISVALDAS KAIRYS, MUNEAKI KAMIYA,
     MICHIO KATOUDA, NAOAKI KAWAKAMI, DAN KEMP, BERNARD KIRTMAN,
     KAZUO KITAURA, MARIUSZ KLOBUKOWSKI, MASATO KOBAYASHI,
     PRAKASHAN KORAMBATH, JACEK KORCHOWIEC, SHIRO KOSEKI,
     KAROL KOWALSKI, JIMMY KROMANN, STANISLAW KUCHARSKI,
     HENRY KURTZ, SAROM SOK LEANG, HUI LI, SHUHUA LI, WEI LI,
     JESSE LUTZ, ALEKSANDR O. LYKHIN, MARCIN MAKOWSKI,
     JOANI MATO, NIKITA MATSUNAGA, BENEDETTA MENNUCCI,
     GRANT MERRILL, NORIYUKI MINEZAWA, VLADIMIR MIRONOV,
     EISAKU MIYOSHI, JOHN A. MONTGOMERY JR., HIROTOSHI MORI,
     JONATHAN MULLIN, MONIKA MUSIAL, SHIGERU NAGASE,
     TAKESHI NAGATA, HIROMI NAKAI, TAKAHITO NAKAJIMA,
     YUYA NAKAJIMA, HARUYUKI NAKANO, HIROYA NAKATA, SEAN NEDD,
     HEATHER NETZLOFF, KIET A. NGUYEN, YOSHIO NISHIMOTO,
     BOSILJKA NJEGIC, RYAN OLSON, MIKE PAK, ROBERTO PEVERATI,
     BUU PHAM, PIOTR PIECUCH, ANNA POMOGAEVA, DAVID POOLE,
     SPENCER PRUITT, OLIVIER QUINET, LUKE ROSKOP,
     KLAUS RUEDENBERG, ANDREW SAND, TOSAPORN SATTASATHUCHANA,
     NOZOMI SAWADA, MICHAEL W. SCHMIDT, PATRICK E. SCHNEIDER,
     JUNJI SEINO, PRACHI SHARMA, JUN SHEN, JIM SHOEMAKER,
     YINAN SHU, DEJUN SI, JONATHAN SKONE, LYUDMILA SLIPCHENKO,
     TONY SMITH, JIE SONG, MARK SPACKMAN, CASPER STEINMANN,
     WALT STEVENS, PEIFENG SU, SHUJUN SU, CHET SWALINA,
     TETSUYA TAKETSUGU, ZHEN TAO, NANDUN THELLAMUREGE
     SEIKEN TOKURA, JACOPO TOMASI, TSUGUKI TOUMA, TAKAO TSUNEDA,
     HIROAKI UMEDA, JORGE LUIS GALVEZ VALLEJO, YALI WANG,
     SIMON WEBB, AARON WEST, THERESA L. WINDUS, MARTA WLOCH,
     PENG XU, KIYOSHI YAGI, SUSUMU YANAGISAWA, YANG YANG,
     SOOHAENG YOO, TAKESHI YOSHIKAWA, FEDERICO ZAHARIEV,
     TOBY ZENG

  WHO ARE SUPPORTED BY THEIR INSTITUTION/UNIVERSITY/COMPANY/GROUP
  (IN ALPHABETICAL ORDER):

     EP ANALYTICS, FACULTES UNIVERSITAIRES NOTRE-DAME DE LA PAIX,
     INSTITUTE FOR MOLECULAR SCIENCE, IOWA STATE UNIVERSITY,
     JACKSON STATE UNIVERSITY, JOHANNES KEPLER UNIVERSITY LINZ,
     KYUSHU UNIVERSITY, MICHIGAN STATE UNIVERSITY,
     MIE UNIVERSITY, MOSCOW STATE UNIVERSITY,
     N. COPERNICUS UNIVERSITY, NAGOYA UNIVERSITY,
     NANJING UNIVERSITY, NAT. INST. OF ADVANCED INDUSTRIAL
     SCIENCE AND TECHNOLOGY, NATIONAL INST. OF STANDARDS AND
     TECHNOLOGY, NESMEYANOV INSTITUTE OF ORGANOELEMENT COMPOUNDS
     OF RUSSIAN ACADEMY OF SCIENCES, OSAKA PREFECTURE UNIVERSITY,
     PENNSYLVANIA STATE UNIVERSITY, TOKYO INSTITUTE OF TECHNOLOGY,
     UNIVERSITY OF AARHUS, UNIVERSITY OF ALBERTA,
     UNIVERSITY OF CALIFORNIA AT SANTA BARBARA,
     UNIVERSITY OF COPENHAGEN, UNIVERSITY OF IOWA,
     UNIVERSITY OF MEMPHIS, UNIVERSITY OF MINNESOTA,
     UNIVERSITY OF NEBRASKA, UNIVERSITY OF NEW ENGLAND,
     UNIVERSITY OF NOTRE DAME, UNIVERSITY OF PISA,
     UNIVERSITY OF SILESIA, UNIVERSITY OF TOKYO,
     UNIVERSITY OF ZURICH, WASEDA UNIVERSITY, YALE UNIVERSITY

  GAMESS SOFTWARE MANAGEMENT TEAM FOR THIS RELEASE:
     MARK S. GORDON (TEAM LEAD),
     BRETT BODE (SENIOR ADVISOR),
     GIUSEPPE BARCA,
     COLLEEN BERTONI,
     KRISTOPHER KEIPERT (ADVISOR),
     SAROM S. LEANG (DEVELOPMENT LEAD),
     BUU PHAM,
     JORGE LUIS GALVEZ VALLEJO (WEBSITE ADMINISTRATOR),
     PENG XU


 PARALLEL VERSION RUNNING ON       16 PROCESSORS IN        1 NODES.

 EXECUTION OF GAMESS BEGUN 14:31:27 25-DEC-2023    

            ECHO OF THE FIRST FEW INPUT CARDS -
 INPUT CARD> $CONTRL SCFTYP=UHF RUNTYP=EDA dfttyp=B3LYP ispher=1 icharg=0 mult=1 $END       
 INPUT CARD> $SYSTEM  mwords=150 memddi=150 $END                                            
 INPUT CARD> $BASIS gbasis=accd $END                                                        
 INPUT CARD> $LMOEDA MATOM(1)=5 5 MCHARG(1)=0 0 MMULT(1)=2 -2 edatyp=gks $end               
 INPUT CARD> $scf DIIS=.TRUE. ETHRSH=2.0 SWDIIS=0.005 $end                                  
 INPUT CARD> $data                                                                          
 INPUT CARD> EDA calculation with XEDA 1.0                                                  
 INPUT CARD> c1                                                                             
 INPUT CARD>C   6   -0.1482814409    0.6389116255   -1.7388676943                           
 INPUT CARD>C   6   -0.1482814409    0.6389116255   -0.3815976464                           
 INPUT CARD>H   1   -0.0668942076    1.5907651539    0.1585217663                           
 INPUT CARD>H   1   -0.2086608169   -0.2891314339   -2.3161951569                           
 INPUT CARD>H   1   -0.1005939806    1.5642735717   -2.3169220246                           
 INPUT CARD>C   6   -0.1482814409   -0.5946532370    0.4475417488                           
 INPUT CARD>C   6    0.4149850812   -0.6787212319    1.6795560313                           
 INPUT CARD>H   1    0.8611077918    0.1917381243    2.1709760490                           
 INPUT CARD>H   1    0.4380473896   -1.6145741837    2.2420149499                           
 INPUT CARD>H   1   -0.5674773047   -1.4960421189   -0.0173669027                           
 INPUT CARD> $end                                                                           
  150000000 WORDS OF MEMORY AVAILABLE

     BASIS OPTIONS
     -------------
     GBASIS=ACCD         IGAUSS=       0      POLAR=NONE    
     NDFUNC=       0     NFFUNC=       0     DIFFSP=       F
     NPFUNC=       0      DIFFS=       F     BASNAM=        


     RUN TITLE
     ---------
  EDA calculation with XEDA 1.0                                                  

 THE POINT GROUP OF THE MOLECULE IS C1      
 THE ORDER OF THE PRINCIPAL AXIS IS     0

 ATOM      ATOMIC                      COORDINATES (BOHR)
           CHARGE         X                   Y                   Z
 C           6.0    -0.2802112924        1.2073679026       -3.2859834711
 C           6.0    -0.2802112924        1.2073679026       -0.7211149893
 H           1.0    -0.1264117225        3.0061102517        0.2995627014
 H           1.0    -0.3943117683       -0.5463791845       -4.3769741806
 H           1.0    -0.1900950593        2.9560484203       -4.3783477614
 C           6.0    -0.2802112924       -1.1237316756        0.8457312733
 C           6.0     0.7842080925       -1.2825971503        3.1739006802
 H           1.0     1.6272577724        0.3623325163        4.1025498585
 H           1.0     0.8277895360       -3.0511027940        4.2367939157
 H           1.0    -1.0723766101       -2.8271096708       -0.0328186874

          INTERNUCLEAR DISTANCES (ANGS.)
          ------------------------------

                1 C          2 C          3 H          4 H          5 H     

   1 C       0.0000000    1.3572700 *  2.1243201 *  1.0946308 *  1.0921152 *
   2 C       1.3572700 *  0.0000000    1.0974416 *  2.1465268 *  2.1457048 *
   3 H       2.1243201 *  1.0974416 *  0.0000000    3.1110019    2.4758149 *
   4 H       1.0946308 *  2.1465268 *  3.1110019    0.0000000    1.8565530 *
   5 H       1.0921152 *  2.1457048 *  2.4758149 *  1.8565530 *  0.0000000  
   6 C       2.5103921 *  1.4863224 *  2.2059488 *  2.7812283 *  3.5079195  
   7 C       3.7066220    2.5103346 *  2.7742245 *  4.0628490    4.6117984  
   8 H       4.0627219    2.7810903 *  2.6207702 *  4.6379247    4.7906109  
   9 H       4.6118767    3.5078944    3.8561782    4.7908569    5.5838261  
  10 H       2.7744040 *  2.2059956 *  3.1320759    2.6210673 *  3.8563540  

                6 C          7 C          8 H          9 H         10 H     

   1 C       2.5103921 *  3.7066220    4.0627219    4.6118767    2.7744040 *
   2 C       1.4863224 *  2.5103346 *  2.7810903 *  3.5078944    2.2059956 *
   3 H       2.2059488 *  2.7742245 *  2.6207702 *  3.8561782    3.1320759  
   4 H       2.7812283 *  4.0628490    4.6379247    4.7908569    2.6210673 *
   5 H       3.5079195    4.6117984    4.7906109    5.5838261    3.8563540  
   6 C       0.0000000    1.3572751 *  2.1465097 *  2.1457293 *  1.0974366 *
   7 C       1.3572751 *  0.0000000    1.0946317 *  1.0921138 *  2.1243336 *
   8 H       2.1465097 *  1.0946317 *  0.0000000    1.8565535 *  3.1109970  
   9 H       2.1457293 *  1.0921138 *  1.8565535 *  0.0000000    2.4758708 *
  10 H       1.0974366 *  2.1243336 *  3.1109970    2.4758708 *  0.0000000  

  * ... LESS THAN  3.000


     ATOMIC BASIS SET
     ----------------
 THE CONTRACTED PRIMITIVE FUNCTIONS HAVE BEEN UNNORMALIZED
 THE CONTRACTED BASIS FUNCTIONS ARE NOW NORMALIZED TO UNITY

  SHELL TYPE  PRIMITIVE        EXPONENT          CONTRACTION COEFFICIENT(S)

 C         

      1   S       1          6665.0000000    0.000691583963
      1   S       2          1000.0000000    0.005325796153
      1   S       3           228.0000000    0.027060721042
      1   S       4            64.7100000    0.101656846141
      1   S       5            21.0600000    0.274574823617
      1   S       6             7.4950000    0.448294318924
      1   S       7             2.7970000    0.284902610715
      1   S       8             0.5215000    0.015194859206

      2   S       9          6665.0000000   -0.000293269653
      2   S      10          1000.0000000   -0.002318035474
      2   S      11           228.0000000   -0.011499786039
      2   S      12            64.7100000   -0.046826727010
      2   S      13            21.0600000   -0.128466168750
      2   S      14             7.4950000   -0.301266272463
      2   S      15             2.7970000   -0.255630702330
      2   S      16             0.5215000    1.093793361012

      3   S      17             0.1596000    1.000000000000

      4   P      18             9.4390000    0.056979251590
      4   P      19             2.0020000    0.313207211501
      4   P      20             0.5456000    0.760376741738

      5   P      21             0.1517000    1.000000000000

      6   D      22             0.5500000    1.000000000000

      7   S      23             0.0469000    1.000000000000

      8   P      24             0.0404100    1.000000000000

      9   D      25             0.1510000    1.000000000000

 C         

     10   S      26          6665.0000000    0.000691583963
     10   S      27          1000.0000000    0.005325796153
     10   S      28           228.0000000    0.027060721042
     10   S      29            64.7100000    0.101656846141
     10   S      30            21.0600000    0.274574823617
     10   S      31             7.4950000    0.448294318924
     10   S      32             2.7970000    0.284902610715
     10   S      33             0.5215000    0.015194859206

     11   S      34          6665.0000000   -0.000293269653
     11   S      35          1000.0000000   -0.002318035474
     11   S      36           228.0000000   -0.011499786039
     11   S      37            64.7100000   -0.046826727010
     11   S      38            21.0600000   -0.128466168750
     11   S      39             7.4950000   -0.301266272463
     11   S      40             2.7970000   -0.255630702330
     11   S      41             0.5215000    1.093793361012

     12   S      42             0.1596000    1.000000000000

     13   P      43             9.4390000    0.056979251590
     13   P      44             2.0020000    0.313207211501
     13   P      45             0.5456000    0.760376741738

     14   P      46             0.1517000    1.000000000000

     15   D      47             0.5500000    1.000000000000

     16   S      48             0.0469000    1.000000000000

     17   P      49             0.0404100    1.000000000000

     18   D      50             0.1510000    1.000000000000

 H         

     19   S      51            13.0100000    0.033498726390
     19   S      52             1.9620000    0.234800801174
     19   S      53             0.4446000    0.813682957883

     20   S      54             0.1220000    1.000000000000

     21   P      55             0.7270000    1.000000000000

     22   S      56             0.0297400    1.000000000000

     23   P      57             0.1410000    1.000000000000

 H         

     24   S      58            13.0100000    0.033498726390
     24   S      59             1.9620000    0.234800801174
     24   S      60             0.4446000    0.813682957883

     25   S      61             0.1220000    1.000000000000

     26   P      62             0.7270000    1.000000000000

     27   S      63             0.0297400    1.000000000000

     28   P      64             0.1410000    1.000000000000

 H         

     29   S      65            13.0100000    0.033498726390
     29   S      66             1.9620000    0.234800801174
     29   S      67             0.4446000    0.813682957883

     30   S      68             0.1220000    1.000000000000

     31   P      69             0.7270000    1.000000000000

     32   S      70             0.0297400    1.000000000000

     33   P      71             0.1410000    1.000000000000

 C         

     34   S      72          6665.0000000    0.000691583963
     34   S      73          1000.0000000    0.005325796153
     34   S      74           228.0000000    0.027060721042
     34   S      75            64.7100000    0.101656846141
     34   S      76            21.0600000    0.274574823617
     34   S      77             7.4950000    0.448294318924
     34   S      78             2.7970000    0.284902610715
     34   S      79             0.5215000    0.015194859206

     35   S      80          6665.0000000   -0.000293269653
     35   S      81          1000.0000000   -0.002318035474
     35   S      82           228.0000000   -0.011499786039
     35   S      83            64.7100000   -0.046826727010
     35   S      84            21.0600000   -0.128466168750
     35   S      85             7.4950000   -0.301266272463
     35   S      86             2.7970000   -0.255630702330
     35   S      87             0.5215000    1.093793361012

     36   S      88             0.1596000    1.000000000000

     37   P      89             9.4390000    0.056979251590
     37   P      90             2.0020000    0.313207211501
     37   P      91             0.5456000    0.760376741738

     38   P      92             0.1517000    1.000000000000

     39   D      93             0.5500000    1.000000000000

     40   S      94             0.0469000    1.000000000000

     41   P      95             0.0404100    1.000000000000

     42   D      96             0.1510000    1.000000000000

 C         

     43   S      97          6665.0000000    0.000691583963
     43   S      98          1000.0000000    0.005325796153
     43   S      99           228.0000000    0.027060721042
     43   S     100            64.7100000    0.101656846141
     43   S     101            21.0600000    0.274574823617
     43   S     102             7.4950000    0.448294318924
     43   S     103             2.7970000    0.284902610715
     43   S     104             0.5215000    0.015194859206

     44   S     105          6665.0000000   -0.000293269653
     44   S     106          1000.0000000   -0.002318035474
     44   S     107           228.0000000   -0.011499786039
     44   S     108            64.7100000   -0.046826727010
     44   S     109            21.0600000   -0.128466168750
     44   S     110             7.4950000   -0.301266272463
     44   S     111             2.7970000   -0.255630702330
     44   S     112             0.5215000    1.093793361012

     45   S     113             0.1596000    1.000000000000

     46   P     114             9.4390000    0.056979251590
     46   P     115             2.0020000    0.313207211501
     46   P     116             0.5456000    0.760376741738

     47   P     117             0.1517000    1.000000000000

     48   D     118             0.5500000    1.000000000000

     49   S     119             0.0469000    1.000000000000

     50   P     120             0.0404100    1.000000000000

     51   D     121             0.1510000    1.000000000000

 H         

     52   S     122            13.0100000    0.033498726390
     52   S     123             1.9620000    0.234800801174
     52   S     124             0.4446000    0.813682957883

     53   S     125             0.1220000    1.000000000000

     54   P     126             0.7270000    1.000000000000

     55   S     127             0.0297400    1.000000000000

     56   P     128             0.1410000    1.000000000000

 H         

     57   S     129            13.0100000    0.033498726390
     57   S     130             1.9620000    0.234800801174
     57   S     131             0.4446000    0.813682957883

     58   S     132             0.1220000    1.000000000000

     59   P     133             0.7270000    1.000000000000

     60   S     134             0.0297400    1.000000000000

     61   P     135             0.1410000    1.000000000000

 H         

     62   S     136            13.0100000    0.033498726390
     62   S     137             1.9620000    0.234800801174
     62   S     138             0.4446000    0.813682957883

     63   S     139             0.1220000    1.000000000000

     64   P     140             0.7270000    1.000000000000

     65   S     141             0.0297400    1.000000000000

     66   P     142             0.1410000    1.000000000000

 TOTAL NUMBER OF BASIS SET SHELLS             =   66
 NUMBER OF CARTESIAN GAUSSIAN BASIS FUNCTIONS =  154
 NOTE: THIS RUN WILL RESTRICT THE MO VARIATION SPACE TO SPHERICAL HARMONICS.
 THE NUMBER OF ORBITALS KEPT IN THE VARIATIONAL SPACE WILL BE PRINTED LATER.
 NUMBER OF ELECTRONS                          =   30
 CHARGE OF MOLECULE                           =    0
 SPIN MULTIPLICITY                            =    1
 NUMBER OF OCCUPIED ORBITALS (ALPHA)          =   15
 NUMBER OF OCCUPIED ORBITALS (BETA )          =   15
 TOTAL NUMBER OF ATOMS                        =   10
 THE NUCLEAR REPULSION ENERGY IS      102.3303045249

 SELECTED MURRAY-HANDY-LAMING RADIAL GRID

 LEGACY BECKE'S FUZZY CELL METHOD

 SELECTED ORIGINAL BECKE'S PARTITION FUNCTION

     LEBEDEV GRID-BASED DFT OPTIONS
     ------------------------------
     DFTTYP=B3LYP   
     NRAD  =      96     NLEB  =     302
     NRAD0 =      24     NLEB0 =     110
     SWOFF =    5.00E-03 (PURE SCF -> DFT)
     SWITCH=    3.00E-04 (COARSE -> TIGHT GRID)
     THRESH=    0.00E+00 GTHRE=    1.00E+00

 GRIMME'S EMPIRICAL DISPERSION CORRECTION= F

     $CONTRL OPTIONS
     ---------------
 SCFTYP=UHF          RUNTYP=LMOEDA       EXETYP=RUN     
 MPLEVL=       0     CITYP =NONE         CCTYP =NONE         VBTYP =NONE    
 DFTTYP=B3LYP        TDDFT =NONE    
 MULT  =       1     ICHARG=       0     NZVAR =       0     COORD =UNIQUE  
 PP    =NONE         RELWFN=NONE         LOCAL =NONE         NUMGRD=       F
 ISPHER=       1     NOSYM =       0     MAXIT =      30     UNITS =ANGS    
 PLTORB=       F     MOLPLT=       F     AIMPAC=       F     FRIEND=        
 NPRINT=       7     IREST =       0     GEOM  =INPUT   
 NORMF =       0     NORMP =       0     ITOL  =      20     ICUT  =       9
 INTTYP=BEST         GRDTYP=BEST         QMTTOL= 1.0E-06

     $SYSTEM OPTIONS
     ---------------
  REPLICATED MEMORY=   150000000 WORDS (ON EVERY NODE).
 DISTRIBUTED MEMDDI=         150 MILLION WORDS IN AGGREGATE,
 MEMDDI DISTRIBUTED OVER  16 PROCESSORS IS     9375000 WORDS/PROCESSOR.
 TOTAL MEMORY REQUESTED ON EACH PROCESSOR=   159375000 WORDS.
 TIMLIM=      525600.00 MINUTES, OR     365.0 DAYS.
 PARALL= T  BALTYP=  DLB     KDIAG=    0  COREFL= F
 MXSEQ2=     300 MXSEQ3=     150  mem10=         0  mem22=         0

 Using Gaussians for PCM contribution to MEP, params: 0.10000E+01 0.10000E-07

          ----------------
          PROPERTIES INPUT
          ----------------

     MOMENTS            FIELD           POTENTIAL          DENSITY
 IEMOM =       1   IEFLD =       0   IEPOT =       0   IEDEN =       0
 WHERE =COMASS     WHERE =NUCLEI     WHERE =NUCLEI     WHERE =NUCLEI  
 OUTPUT=BOTH       OUTPUT=BOTH       OUTPUT=BOTH       OUTPUT=BOTH    
 IEMINT=       0   IEFINT=       0                     IEDINT=       0
                                                       MORB  =       0
          EXTRAPOLATION IN EFFECT
          DIIS IN EFFECT
          DIIS or SOSCF will be reset if energy rises
 ORBITAL PRINTING OPTION: NPREO=     1   154     2     1

     -------------------------------
     INTEGRAL TRANSFORMATION OPTIONS
     -------------------------------
     NWORD  =            0
     CUTOFF = 1.0E-09     MPTRAN =       0
     DIRTRF =       F     AOINTS =DUP     

          -----------------------------
          LOCALIZATION INPUT PARAMETERS
          -----------------------------
           LOCAL=RUEDNBRG      NOUTA=       0
          PRTLOC=       F      NOUTB=       0
          MAXLOC=     250     CVGLOC=1.00E-06
           FCORE=       F     SYMLOC=       F
          MOIDON=       F     EDCOMP=       F
          DIPDCM=       F      NPROT=       0
          QADDCM=       F     DEPRNT=       F
          POLNUM=       F     ORIENT=       F
          POLDYN=       F      VMTOL=1.50E-01
          NPRDTL=       2     IBOYAL=       1

          ----------------------
          INTEGRAL INPUT OPTIONS
          ----------------------
 NOPK  =       1 NORDER=       0 SCHWRZ=       T

     ------------------------------------------
     THE POINT GROUP IS C1 , NAXIS= 0, ORDER= 1
     ------------------------------------------

 -- VARIATIONAL SPACE WILL BE RESTRICTED TO PURE SPHERICAL HARMONICS ONLY --
 AFTER EXCLUDING CONTAMINANT COMBINATIONS FROM THE CARTESIAN GAUSSIAN BASIS
 SET, THE NUMBER OF SPHERICAL HARMONICS KEPT IN THE VARIATION SPACE IS  146

     DIMENSIONS OF THE SYMMETRY SUBSPACES ARE
 A   =  146

 ..... DONE SETTING UP THE RUN .....
 CPU     0: STEP CPU TIME=     0.03 TOTAL CPU TIME=          0.0 (      0.0 MIN)
 TOTAL WALL CLOCK TIME=          0.0 SECONDS, CPU UTILIZATION IS    81.01%

          --------------
          GKSEDA OPTIONS
          --------------
          NMOL  =       2          EDATYP=GKS     
          SUPBAS=       T          RDVECM=       F          ITRTN =       T

 *******************
 GKSEDA IS BEGINNING
 *******************

 NMOL =  2

 MONOMER     ATOM   CHARGE ELECTRON MULTIPLE
 -------------------------------------------
       1        5        0       15        2
       2        5        0       15       -2
 -------------------------------------------

 SAVING MOL INFO REQUIRES    598670 WORDS OF MEMORY.

          ********************
          1 ELECTRON INTEGRALS
          ********************
 ...... END OF ONE-ELECTRON INTEGRALS ......
 CPU     0: STEP CPU TIME=     0.01 TOTAL CPU TIME=          0.0 (      0.0 MIN)
 TOTAL WALL CLOCK TIME=          0.0 SECONDS, CPU UTILIZATION IS    82.98%

          -------------
          GUESS OPTIONS
          -------------
          GUESS =HUCKEL            NORB  =       0          NORDER=       0
          MIX   =       F          PRTMO =       F          PUNMO =       F
          TOLZ  = 1.0E-08          TOLE  = 1.0E-05
          SYMDEN=       F          PURIFY=       F

 INITIAL GUESS ORBITALS GENERATED BY HUCKEL   ROUTINE.
 HUCKEL GUESS REQUIRES    180842 WORDS.

 STATISTICS FOR GENERATION OF SYMMETRY ORBITAL -Q- MATRIX
 NUMBER OF CARTESIAN ATOMIC ORBITALS=        154
 NUMBER OF SPHERICAL CONTAMINANTS DROPPED=     8
 NUMBER OF LINEARLY DEPENDENT MOS DROPPED=     0
 TOTAL NUMBER OF MOS IN VARIATION SPACE=     146

 SYMMETRIES FOR INITIAL GUESS ORBITALS FOLLOW.  ALPHA SET(S).
    15 ORBITALS ARE OCCUPIED (    4 CORE ORBITALS).
     5=A        6=A        7=A        8=A        9=A       10=A       11=A   
    12=A       13=A       14=A       15=A       16=A       17=A       18=A   
    19=A       20=A       21=A       22=A       23=A       24=A       25=A   

 SYMMETRIES FOR INITIAL GUESS ORBITALS FOLLOW.   BETA SET(S).
    15 ORBITALS ARE OCCUPIED (    4 CORE ORBITALS).
     5=A        6=A        7=A        8=A        9=A       10=A       11=A   
    12=A       13=A       14=A       15=A       16=A       17=A       18=A   
    19=A       20=A       21=A       22=A       23=A       24=A       25=A   
 ...... END OF INITIAL ORBITAL SELECTION ......
 CPU     0: STEP CPU TIME=     0.02 TOTAL CPU TIME=          0.1 (      0.0 MIN)
 TOTAL WALL CLOCK TIME=          0.1 SECONDS, CPU UTILIZATION IS    87.21%

          -------------------------
          MONOMER  1 WITH OWN BASIS
          -------------------------

     ------------------------------------------
     THE POINT GROUP IS C1 , NAXIS= 0, ORDER= 1
     ------------------------------------------

 -- VARIATIONAL SPACE WILL BE RESTRICTED TO PURE SPHERICAL HARMONICS ONLY --
 AFTER EXCLUDING CONTAMINANT COMBINATIONS FROM THE CARTESIAN GAUSSIAN BASIS
 SET, THE NUMBER OF SPHERICAL HARMONICS KEPT IN THE VARIATION SPACE IS   73

     DIMENSIONS OF THE SYMMETRY SUBSPACES ARE
 A   =   73

          ********************
          1 ELECTRON INTEGRALS
          ********************
 ...... END OF ONE-ELECTRON INTEGRALS ......
 CPU     0: STEP CPU TIME=     0.01 TOTAL CPU TIME=          0.1 (      0.0 MIN)
 TOTAL WALL CLOCK TIME=          0.1 SECONDS, CPU UTILIZATION IS    88.08%

          -------------
          GUESS OPTIONS
          -------------
          GUESS =HUCKEL            NORB  =       0          NORDER=       0
          MIX   =       F          PRTMO =       F          PUNMO =       F
          TOLZ  = 1.0E-08          TOLE  = 1.0E-05
          SYMDEN=       F          PURIFY=       F

 INITIAL GUESS ORBITALS GENERATED BY HUCKEL   ROUTINE.
 HUCKEL GUESS REQUIRES     47410 WORDS.

 STATISTICS FOR GENERATION OF SYMMETRY ORBITAL -Q- MATRIX
 NUMBER OF CARTESIAN ATOMIC ORBITALS=         77
 NUMBER OF SPHERICAL CONTAMINANTS DROPPED=     4
 NUMBER OF LINEARLY DEPENDENT MOS DROPPED=     0
 TOTAL NUMBER OF MOS IN VARIATION SPACE=      73

 SYMMETRIES FOR INITIAL GUESS ORBITALS FOLLOW.  ALPHA SET(S).
     8 ORBITALS ARE OCCUPIED (    2 CORE ORBITALS).
     3=A        4=A        5=A        6=A        7=A        8=A        9=A   
    10=A       11=A       12=A       13=A       14=A       15=A       16=A   
    17=A       18=A   

 SYMMETRIES FOR INITIAL GUESS ORBITALS FOLLOW.   BETA SET(S).
     7 ORBITALS ARE OCCUPIED (    2 CORE ORBITALS).
     3=A        4=A        5=A        6=A        7=A        8=A        9=A   
    10=A       11=A       12=A       13=A       14=A       15=A       16=A   
    17=A   
 ...... END OF INITIAL ORBITAL SELECTION ......
 CPU     0: STEP CPU TIME=     0.00 TOTAL CPU TIME=          0.1 (      0.0 MIN)
 TOTAL WALL CLOCK TIME=          0.1 SECONDS, CPU UTILIZATION IS    88.58%

                    ----------------------
                    AO INTEGRAL TECHNOLOGY
                    ----------------------
     S,P,L SHELL ROTATED AXIS INTEGRALS, REPROGRAMMED BY
        KAZUYA ISHIMURA (IMS) AND JOSE SIERRA (SYNSTAR).
     S,P,D,L SHELL ROTATED AXIS INTEGRALS PROGRAMMED BY
        KAZUYA ISHIMURA (INSTITUTE FOR MOLECULAR SCIENCE).
     S,P,D,F,G SHELL TO TOTAL QUARTET ANGULAR MOMENTUM SUM 5,
        ERIC PROGRAM BY GRAHAM FLETCHER (ELORET AND NASA ADVANCED
        SUPERCOMPUTING DIVISION, AMES RESEARCH CENTER).
     S,P,D,F,G,L SHELL GENERAL RYS QUADRATURE PROGRAMMED BY
        MICHEL DUPUIS (PACIFIC NORTHWEST NATIONAL LABORATORY).

          --------------------
          2 ELECTRON INTEGRALS
          --------------------

 THE -PK- OPTION IS OFF, THE INTEGRALS ARE NOT IN SUPERMATRIX FORM.
 STORING   15000 INTEGRALS/RECORD ON DISK, USING 12 BYTES/INTEGRAL.
 TWO ELECTRON INTEGRAL EVALUATION REQUIRES   90957 WORDS OF MEMORY.
 SCHWARZ INEQUALITY OVERHEAD:      3003 INTEGRALS, T=        0.00
 II,JST,KST,LST =  1  1  1  1 NREC =         1 INTLOC =    1
 II,JST,KST,LST =  2  1  1  1 NREC =         1 INTLOC =    1
 II,JST,KST,LST =  3  1  1  1 NREC =         1 INTLOC =    1
 II,JST,KST,LST =  4  1  1  1 NREC =         1 INTLOC =    1
 II,JST,KST,LST =  5  1  1  1 NREC =         1 INTLOC =    1
 II,JST,KST,LST =  6  1  1  1 NREC =         1 INTLOC =    1
 II,JST,KST,LST =  7  1  1  1 NREC =         1 INTLOC =    4
 II,JST,KST,LST =  8  1  1  1 NREC =         1 INTLOC =  250
 II,JST,KST,LST =  9  1  1  1 NREC =         1 INTLOC =  250
 II,JST,KST,LST = 10  1  1  1 NREC =         1 INTLOC =  250
 II,JST,KST,LST = 11  1  1  1 NREC =         1 INTLOC =  339
 II,JST,KST,LST = 12  1  1  1 NREC =         1 INTLOC =  765
 II,JST,KST,LST = 13  1  1  1 NREC =         1 INTLOC =  765
 II,JST,KST,LST = 14  1  1  1 NREC =         1 INTLOC = 1100
 II,JST,KST,LST = 15  1  1  1 NREC =         1 INTLOC = 2221
 II,JST,KST,LST = 16  1  1  1 NREC =         1 INTLOC = 9608
 II,JST,KST,LST = 17  1  1  1 NREC =         1 INTLOC = 9608
 II,JST,KST,LST = 18  1  1  1 NREC =         1 INTLOC =11555
 II,JST,KST,LST = 19  1  1  1 NREC =         2 INTLOC = 2772
 II,JST,KST,LST = 20  1  1  1 NREC =         2 INTLOC = 2772
 II,JST,KST,LST = 21  1  1  1 NREC =         2 INTLOC = 5273
 II,JST,KST,LST = 22  1  1  1 NREC =         3 INTLOC = 6482
 II,JST,KST,LST = 23  1  1  1 NREC =         4 INTLOC =11666
 II,JST,KST,LST = 24  1  1  1 NREC =         5 INTLOC = 8741
 II,JST,KST,LST = 25  1  1  1 NREC =         6 INTLOC = 3271
 II,JST,KST,LST = 26  1  1  1 NREC =         7 INTLOC =  841
 II,JST,KST,LST = 27  1  1  1 NREC =         8 INTLOC = 2869
 II,JST,KST,LST = 28  1  1  1 NREC =         9 INTLOC =  801
 II,JST,KST,LST = 29  1  1  1 NREC =         9 INTLOC =12825
 II,JST,KST,LST = 30  1  1  1 NREC =        11 INTLOC = 4392
 II,JST,KST,LST = 31  1  1  1 NREC =        11 INTLOC =13322
 II,JST,KST,LST = 32  1  1  1 NREC =        15 INTLOC = 3673
 II,JST,KST,LST = 33  1  1  1 NREC =        15 INTLOC = 3673
 SCHWARZ INEQUALITY TEST SKIPPED           0 INTEGRAL BLOCKS.
 TOTAL NUMBER OF NONZERO TWO-ELECTRON INTEGRALS =             3901621
        269 INTEGRAL RECORDS WERE STORED ON DISK FILE  8.
  ...... END OF TWO-ELECTRON INTEGRALS .....
 CPU     0: STEP CPU TIME=     0.03 TOTAL CPU TIME=          0.1 (      0.0 MIN)
 TOTAL WALL CLOCK TIME=          0.1 SECONDS, CPU UTILIZATION IS    89.60%

          ---------------------------
              U-B3LYP SCF CALCULATION
          ---------------------------

     NUCLEAR ENERGY =        27.8591859447
     MAXIT = 30     NPUNCH=  2     MULT=  2
     EXTRAP=T  DAMP=F  SHIFT=F  RSTRCT=F  DIIS=T  SOSCF=T
         DENSITY MATRIX CONVERGENCE THRESHOLD=  1.00E-05
     COARSE -> FINE DFT GRID SWITCH THRESHOLD=  3.00E-04 (SWITCH IN $DFT)
                   HF -> DFT SWITCH THRESHOLD=  5.00E-03 (SWOFF IN $DFT)
     SOSCF WILL OPTIMIZE     520 ALPHA AND     462 BETA ROTATION ANGLES.
     SOGTOL= 2.500E-01
     MEMORY REQUIRED FOR UHF/ROHF ITERS=    298732 WORDS.

     EXCHANGE FUNCTIONAL   =B88&HFX   
     CORRELATION FUNCTIONAL=LYP88&VWN5
     DFT THRESHOLD         =.690E-08
     GRID CHANGE THRESHOLD =.300E-03
 FOR AN EULER-MACLAURIN QUADRATURE USING  96 RADIAL POINTS:
 SMALLEST GAUSSIAN PRIMITIVE EXPONENT=        0.0297400000 OF TYPE -S-
 ON ATOM NUMBER   3 HAS RADIAL NORMALIZATION=  1.000000
  LARGEST GAUSSIAN PRIMITIVE EXPONENT=     6665.0000000000 OF TYPE -S-
 ON ATOM NUMBER   1 HAS RADIAL NORMALIZATION=  1.000000
 DFT IS SWITCHED OFF, PERFORMING PURE SCF UNTIL SWOFF THRESHOLD IS REACHED.

 ITER EX      TOTAL ENERGY        E CHANGE  DENSITY CHANGE    DIIS ERROR
          * * *   INITIATING DIIS PROCEDURE   * * *
   1  0      -77.1747351398   -77.1747351398   0.499354533   0.357073939
   2  1      -77.3686531099    -0.1939179700   0.154327910   0.054096496
   3  2      -77.3846963560    -0.0160432462   0.031170732   0.026050293
   4  3      -77.3891119350    -0.0044155790   0.022100976   0.011224105
   5  4      -77.3905064963    -0.0013945613   0.012884068   0.008579131
   6  5      -77.3911581431    -0.0006516468   0.024225953   0.008580650
   7  6      -77.3922249416    -0.0010667985   0.063302622   0.008341115
   8  7      -77.3945936080    -0.0023686664   0.114509350   0.006534809
   9  8      -77.3961795632    -0.0015859552   0.071236398   0.002210389
  10  9      -77.3957261255     0.0004534377   0.043751263   0.004250225
  11 10      -77.3962643715    -0.0005382460   0.007798353   0.000777973
  12 11      -77.3962810418    -0.0000166703   0.000336022   0.000092180
 CONVERGED TO SWOFF, SO DFT CALCULATION IS NOW SWITCHED ON.
          * * *   INITIATING DIIS PROCEDURE   * * *
  13 12      -77.8300632827    -0.4337822410   0.394346378   0.062293025
  14 13      -77.8466691074    -0.0166058247   0.062620900   0.016740645
  15 14      -77.8493527410    -0.0026836336   0.024683152   0.012037632
  16 15      -77.8508127152    -0.0014599742   0.050411244   0.007381691
  17 16      -77.8517939039    -0.0009811887   0.009252415   0.003501125
  18 17      -77.8518796097    -0.0000857058   0.006065730   0.001402456
  19 18      -77.8518996034    -0.0000199937   0.002042165   0.000278071
         SWDIIS THRESHOLD HAS BEEN REACHED: SWITCHING DIIS OFF.
          ---------------START SECOND ORDER SCF---------------
  20 19      -77.8519007755    -0.0000011722   0.000136852   0.000022345
  21 20      -77.8519007880    -0.0000000124   0.000155873   0.000023127
  22 21      -77.8519007886    -0.0000000006   0.000065605   0.000021667
  23 22      -77.8519007928    -0.0000000043   0.000008746   0.000002407
  24 23      -77.8519007930    -0.0000000001   0.000012718   0.000001936

          ----------------
          ENERGY CONVERGED
          ----------------
     TIME TO FORM FOCK OPERATORS=       1.2 SECONDS (       0.1 SEC/ITER)
     TIME TO SOLVE SCF EQUATIONS=       0.1 SECONDS (       0.0 SEC/ITER)

 FINAL U-B3LYP ENERGY IS      -77.8519007930 AFTER  24 ITERATIONS
 DFT EXCHANGE + CORRELATION ENERGY =        -9.5241987992
 TOTAL ELECTRON NUMBER             =        14.9999649494

          --------------------
          SPIN SZ   =    0.500
          S-SQUARED =    0.764
          --------------------

  ----- ALPHA SET ----- 

          ------------
          EIGENVECTORS
          ------------

                      1          2          3          4          5
                  -10.2293   -10.2020    -0.7667    -0.5783    -0.4643
                     A          A          A          A          A   
    1  C  1  S    0.012026   1.009646  -0.019618   0.011341  -0.002194
    2  C  1  S   -0.001515   0.022145   0.316361  -0.227082   0.000260
    3  C  1  S    0.040036  -0.073270   0.096601  -0.324227  -0.036124
    4  C  1  X   -0.000000  -0.000027   0.000046   0.003721   0.020098
    5  C  1  Y   -0.000024   0.000000   0.007895   0.030531   0.339413
    6  C  1  Z   -0.001003  -0.000353   0.110391   0.207172  -0.210950
    7  C  1  X   -0.000105   0.000048   0.001827   0.001356  -0.000142
    8  C  1  Y   -0.001388  -0.000282   0.023382   0.027332  -0.015598
    9  C  1  Z    0.038527  -0.008939  -0.028559  -0.243742   0.039348
   10  C  1 XX    0.000220  -0.001616  -0.006312   0.001474  -0.001707
   11  C  1 YY    0.000858   0.000822  -0.007558  -0.011247   0.008502
   12  C  1 ZZ   -0.001078   0.000794   0.013870   0.009773  -0.006796
   13  C  1 XY    0.000042   0.000166  -0.000075  -0.000896   0.000476
   14  C  1 XZ    0.000035   0.000015  -0.000038   0.000242  -0.000167
   15  C  1 YZ    0.000475   0.000045   0.000200   0.002351  -0.006058
   16  C  1  S    0.015246  -0.033883   0.016641   0.137898  -0.060909
   17  C  1  X    0.000069   0.000074  -0.000261   0.000650  -0.003325
   18  C  1  Y    0.000762   0.000808  -0.003861   0.009348  -0.058330
   19  C  1  Z    0.006210  -0.003673  -0.001824   0.011621  -0.008995
   20  C  1 XX   -0.002133   0.004858   0.006261  -0.006619  -0.006315
   21  C  1 YY   -0.004450   0.001536  -0.008200   0.105581  -0.044708
   22  C  1 ZZ    0.006584  -0.006394   0.001939  -0.098962   0.051023
   23  C  1 XY   -0.000170  -0.000236  -0.000644   0.008189  -0.001431
   24  C  1 XZ   -0.000239  -0.000112   0.001625   0.000786   0.006214
   25  C  1 YZ   -0.003153  -0.001081   0.024666   0.018785   0.104354
   26  C  2  S    1.009982  -0.013597  -0.017071  -0.006457  -0.000358
   27  C  2  S    0.022717  -0.001364   0.307181   0.269097  -0.069781
   28  C  2  S   -0.089671   0.024492   0.252678   0.494363  -0.240608
   29  C  2  X    0.000095   0.000007   0.002384   0.009127   0.017863
   30  C  2  Y    0.000896   0.000107   0.024298   0.096844   0.254970
   31  C  2  Z   -0.000216   0.000910  -0.128001   0.119094   0.165678
   32  C  2  X   -0.000306  -0.000085  -0.004503  -0.006264   0.000075
   33  C  2  Y   -0.003174  -0.001131  -0.056991  -0.092428   0.008269
   34  C  2  Z    0.030576  -0.016887  -0.090686  -0.221842   0.063237
   35  C  2 XX   -0.000848   0.000672  -0.011409  -0.001394  -0.000421
   36  C  2 YY    0.000510   0.000642  -0.003922   0.009767   0.005715
   37  C  2 ZZ    0.000338  -0.001315   0.015332  -0.008373  -0.005294
   38  C  2 XY    0.000123   0.000002   0.000434   0.000921   0.000756
   39  C  2 XZ    0.000081   0.000006  -0.000399  -0.000020  -0.000383
   40  C  2 YZ    0.000888   0.000040  -0.006124  -0.001590  -0.009585
   41  C  2  S   -0.029021   0.019730  -0.018935  -0.117941   0.022243
   42  C  2  X   -0.000117  -0.000112  -0.000109  -0.002208   0.000929
   43  C  2  Y   -0.001414  -0.001325  -0.000149  -0.026943   0.017897
   44  C  2  Z    0.004223  -0.005759   0.006711   0.004659  -0.013423
   45  C  2 XX    0.005979  -0.001054  -0.006940   0.005822   0.001067
   46  C  2 YY    0.004308  -0.001753  -0.017551  -0.059458  -0.008330
   47  C  2 ZZ   -0.010288   0.002807   0.024491   0.053636   0.007263
   48  C  2 XY   -0.000147  -0.000056  -0.001532  -0.005753  -0.001658
   49  C  2 XZ   -0.000354  -0.000103   0.000518  -0.001973   0.000474
   50  C  2 YZ   -0.004279  -0.001169   0.008545  -0.022477   0.013094
   51  H  3  S   -0.000661  -0.000101   0.124116   0.258601   0.195849
   52  H  3  S    0.021440   0.007227   0.064357   0.272798   0.110065
   53  H  3  X    0.000144  -0.000005  -0.001059  -0.001508  -0.000681
   54  H  3  Y    0.001710  -0.000007  -0.012679  -0.016739  -0.005953
   55  H  3  Z    0.000743   0.000188  -0.011296  -0.010000  -0.005296
   56  H  3  S    0.001312   0.001926   0.003395   0.026009   0.010621
   57  H  3  X   -0.000659  -0.000194  -0.000438  -0.004374  -0.000486
   58  H  3  Y   -0.007695  -0.002221  -0.007551  -0.042250  -0.012041
   59  H  3  Z   -0.002023  -0.000916  -0.017389  -0.029658  -0.010978
   60  H  4  S   -0.000342  -0.000847   0.116589  -0.228611  -0.139855
   61  H  4  S    0.017684   0.021854  -0.010761  -0.217357  -0.196333
   62  H  4  X   -0.000016  -0.000103   0.000925  -0.001031   0.000007
   63  H  4  Y   -0.000208  -0.001540   0.014318  -0.016848   0.000682
   64  H  4  Z   -0.000617  -0.001018   0.012523  -0.005397  -0.009961
   65  H  4  S    0.001760   0.001998  -0.000019  -0.012640  -0.041433
   66  H  4  X    0.000310   0.000435  -0.000487  -0.001534  -0.002835
   67  H  4  Y    0.004808   0.006766  -0.009229  -0.020496  -0.048973
   68  H  4  Z    0.002432   0.003023   0.008745  -0.034305   0.011458
   69  H  5  S   -0.000187  -0.000918   0.126698  -0.203649   0.340462
   70  H  5  S    0.009299   0.018996   0.015878  -0.227371   0.434069
   71  H  5  X   -0.000003   0.000077  -0.000749   0.000861  -0.000412
   72  H  5  Y   -0.000082   0.001516  -0.014477   0.016627  -0.010181
   73  H  5  Z   -0.000420  -0.000947   0.011299  -0.004961   0.005069
   74  H  5  S    0.001702   0.001147   0.002375  -0.014090   0.045336
   75  H  5  X   -0.000118  -0.000311  -0.000155   0.000122  -0.003839
   76  H  5  Y   -0.002351  -0.005998   0.000369   0.020607  -0.071992
   77  H  5  Z    0.001989   0.002956  -0.001819  -0.054002   0.040905

                      6          7          8          9         10
                   -0.4139    -0.2850    -0.2732    -0.0198    -0.0019
                     A          A          A          A          A   
    1  C  1  S    0.000007   0.000000   0.000608  -0.000091  -0.002990
    2  C  1  S   -0.036398   0.005919   0.050301   0.000462   0.084518
    3  C  1  S   -0.169349   0.005110   0.023553   0.000657   0.346338
    4  C  1  X   -0.014186   0.389512  -0.039248   0.403364   0.001417
    5  C  1  Y   -0.256480  -0.032825  -0.132336  -0.022979   0.029096
    6  C  1  Z   -0.318849   0.009944   0.112944  -0.002716  -0.096016
    7  C  1  X    0.004782   0.215149  -0.015975   0.338219   0.001074
    8  C  1  Y    0.059562  -0.009618   0.032674  -0.020566   0.041985
    9  C  1  Z   -0.091603  -0.002564  -0.021799  -0.002119  -0.282933
   10  C  1 XX   -0.001075  -0.000016   0.000553  -0.000055   0.000904
   11  C  1 YY    0.010456  -0.000098  -0.000692  -0.000050  -0.002745
   12  C  1 ZZ   -0.009381   0.000114   0.000139   0.000105   0.001841
   13  C  1 XY    0.001013   0.000638   0.000084   0.000063  -0.000284
   14  C  1 XZ    0.001223   0.021727   0.000756  -0.029973   0.000130
   15  C  1 YZ    0.013692   0.001415   0.040451   0.002422   0.001390
   16  C  1  S   -0.038235   0.015952   0.157387   0.001180   1.299311
   17  C  1  X    0.003182   0.028721  -0.001444   0.561176  -0.003177
   18  C  1  Y    0.051275  -0.000453   0.020118  -0.031378   0.036405
   19  C  1  Z   -0.014800   0.003920   0.040043  -0.001604  -0.298451
   20  C  1 XX   -0.000069  -0.000039  -0.005543  -0.000130  -0.039293
   21  C  1 YY   -0.043778   0.002519   0.029061   0.000281   0.024200
   22  C  1 ZZ    0.043847  -0.002479  -0.023517  -0.000152   0.015093
   23  C  1 XY   -0.002895   0.004656   0.001765  -0.003246   0.004177
   24  C  1 XZ   -0.002776   0.003545  -0.002381  -0.041874   0.002546
   25  C  1 YZ   -0.052519  -0.002489  -0.035322   0.001087   0.027009
   26  C  2  S   -0.000886   0.000009  -0.000795  -0.000107  -0.002514
   27  C  2  S    0.031154  -0.014480  -0.150868   0.001879   0.056015
   28  C  2  S   -0.054785  -0.028039  -0.310892   0.005398   0.365155
   29  C  2  X    0.007132   0.442807  -0.004279  -0.410809   0.003671
   30  C  2  Y    0.033398   0.005772   0.474609   0.030975   0.043441
   31  C  2  Z    0.373520  -0.024525  -0.255084   0.003569   0.082454
   32  C  2  X   -0.004586   0.256133  -0.006352  -0.347554   0.008559
   33  C  2  Y   -0.065887  -0.000862   0.243423   0.028390   0.098473
   34  C  2  Z    0.045282  -0.020003  -0.222174   0.001985  -0.006043
   35  C  2 XX   -0.001521  -0.000161  -0.004736  -0.000141  -0.001714
   36  C  2 YY    0.010899  -0.000188  -0.000054   0.000004  -0.004845
   37  C  2 ZZ   -0.009379   0.000348   0.004790   0.000137   0.006559
   38  C  2 XY    0.001171  -0.000506   0.000905  -0.000070  -0.000252
   39  C  2 XZ    0.001322  -0.020206   0.002902  -0.032092  -0.000174
   40  C  2 YZ    0.017752   0.002729   0.020202   0.001599  -0.003566
   41  C  2  S   -0.014719  -0.023885  -0.260616   0.006279   0.871494
   42  C  2  X   -0.002730   0.031386  -0.001368  -0.512867   0.017955
   43  C  2  Y   -0.035735  -0.000634   0.023984   0.034134   0.190290
   44  C  2  Z   -0.015097   0.001284   0.007180   0.002071   0.147962
   45  C  2 XX   -0.004221   0.000683   0.006808   0.000894  -0.039312
   46  C  2 YY   -0.036428  -0.001996  -0.022743  -0.000840  -0.012799
   47  C  2 ZZ    0.040649   0.001313   0.015935  -0.000054   0.052112
   48  C  2 XY   -0.003562  -0.001501  -0.002065   0.008261   0.002892
   49  C  2 XZ   -0.001102  -0.007211  -0.000339  -0.037662   0.002854
   50  C  2 YZ   -0.017351  -0.000240  -0.012368   0.001046   0.033331
   51  H  3  S    0.231821   0.015215   0.195185  -0.005098   0.005420
   52  H  3  S    0.276779   0.020010   0.249168  -0.005308  -0.358865
   53  H  3  X   -0.000704   0.015619  -0.001049  -0.020875  -0.000877
   54  H  3  Y   -0.009219  -0.000719   0.006934   0.001545  -0.010622
   55  H  3  Z    0.001024  -0.001493  -0.015858   0.000155  -0.001595
   56  H  3  S    0.036695   0.001558   0.027567  -0.002886  -0.898779
   57  H  3  X   -0.003213   0.015123  -0.003577  -0.053443   0.002816
   58  H  3  Y   -0.038425  -0.002704  -0.017663   0.002668   0.031885
   59  H  3  Z   -0.036370  -0.002903  -0.029008  -0.000030   0.033153
   60  H  4  S    0.325671   0.008975   0.145486   0.000803   0.006935
   61  H  4  S    0.391960   0.011436   0.193026   0.002983  -0.404274
   62  H  4  X    0.000733   0.014330  -0.001210   0.021761   0.000594
   63  H  4  Y    0.009616  -0.000967  -0.000822  -0.001360   0.009622
   64  H  4  Z    0.003264   0.000376   0.005109  -0.000242   0.002101
   65  H  4  S    0.035954   0.002395   0.039750   0.007586  -0.640911
   66  H  4  X    0.003884   0.015731   0.000780   0.045341  -0.003838
   67  H  4  Y    0.055078   0.001572   0.035397  -0.002474  -0.063470
   68  H  4  Z    0.052438  -0.000029   0.003300  -0.001138  -0.016818
   69  H  5  S   -0.074189  -0.016085  -0.209413  -0.003576   0.004022
   70  H  5  S   -0.185060  -0.025923  -0.337019  -0.005002  -0.419181
   71  H  5  X   -0.000203   0.014300  -0.001233   0.022626  -0.000664
   72  H  5  Y   -0.003178  -0.000744  -0.000039  -0.001316  -0.012172
   73  H  5  Z   -0.010887  -0.000038   0.000269  -0.000015   0.003440
   74  H  5  S   -0.043189  -0.002178  -0.041730  -0.005495  -1.137196
   75  H  5  X    0.002329   0.012883   0.000855   0.052684   0.002056
   76  H  5  Y    0.051059   0.002461   0.043097  -0.003629   0.036408
   77  H  5  Z   -0.005816  -0.002439  -0.023056   0.000844  -0.024723

                     11         12         13         14         15
                    0.0149     0.0251     0.0627     0.0712     0.0791
                     A          A          A          A          A   
    1  C  1  S   -0.001246   0.002381   0.000923   0.007635   0.002853
    2  C  1  S    0.067788  -0.017026  -0.001246  -0.012397   0.043570
    3  C  1  S    0.185533  -0.129075  -0.048372  -0.389381   0.153473
    4  C  1  X   -0.004097  -0.005757  -0.171760   0.015324  -0.000403
    5  C  1  Y   -0.066962  -0.118660   0.012246   0.036338   0.011387
    6  C  1  Z   -0.036241   0.004974   0.000942   0.013933   0.054841
    7  C  1  X   -0.011027  -0.019079  -0.198712   0.023421   0.001972
    8  C  1  Y   -0.169842  -0.371891   0.016975   0.100628   0.010239
    9  C  1  Z   -0.272595   0.104680   0.002146   0.031672  -0.044211
   10  C  1 XX    0.002842  -0.003158  -0.000345  -0.007377  -0.006859
   11  C  1 YY    0.004853  -0.001735   0.000060   0.001090  -0.010857
   12  C  1 ZZ   -0.007695   0.004893   0.000285   0.006287   0.017717
   13  C  1 XY    0.000193   0.000067   0.000882   0.000538  -0.000246
   14  C  1 XZ   -0.000500  -0.000225  -0.006118  -0.000397   0.000210
   15  C  1 YZ   -0.004786  -0.003799  -0.000412  -0.010466   0.002979
   16  C  1  S    0.432712  -1.741796  -1.011734 -10.802500   1.496415
   17  C  1  X   -0.007747  -0.113110   0.629568  -0.035351  -0.034009
   18  C  1  Y   -0.196327  -1.938138   0.038867   0.435225  -0.488363
   19  C  1  Z   -0.532611  -0.371173  -0.423220  -4.819584  -1.570214
   20  C  1 XX   -0.010757   0.016343   0.003882   0.080287   0.022266
   21  C  1 YY    0.021892  -0.051137  -0.010880  -0.153234   0.016465
   22  C  1 ZZ   -0.011135   0.034794   0.006997   0.072948  -0.038731
   23  C  1 XY    0.003402  -0.004133  -0.024962  -0.014824  -0.001085
   24  C  1 XZ   -0.002322   0.006269  -0.041080   0.005189   0.007940
   25  C  1 YZ   -0.043262   0.099260   0.000764   0.002928   0.113830
   26  C  2  S   -0.001259  -0.000734  -0.000627  -0.005492   0.005492
   27  C  2  S   -0.073448   0.047788   0.003357   0.040910   0.030514
   28  C  2  S   -0.233520   0.242966   0.041104   0.429889   0.049902
   29  C  2  X   -0.008017  -0.002880  -0.128270  -0.000304   0.003611
   30  C  2  Y   -0.084772  -0.046187  -0.000903  -0.142541   0.060726
   31  C  2  Z   -0.028010   0.023175   0.001030   0.004516  -0.075943
   32  C  2  X   -0.016027   0.007499  -0.144335   0.022914  -0.013396
   33  C  2  Y   -0.159379   0.092425   0.027197   0.114653  -0.141574
   34  C  2  Z   -0.249468   0.148794   0.000413   0.043268  -0.064268
   35  C  2 XX   -0.003379   0.001477  -0.000603   0.001453  -0.010070
   36  C  2 YY   -0.001798   0.002144   0.000737  -0.000597  -0.013416
   37  C  2 ZZ    0.005177  -0.003621  -0.000133  -0.000856   0.023486
   38  C  2 XY    0.000264  -0.000023  -0.003842   0.000098  -0.000319
   39  C  2 XZ    0.000536   0.000347   0.013321  -0.000823  -0.000401
   40  C  2 YZ    0.008175   0.007605  -0.000751   0.002025  -0.006670
   41  C  2  S   -0.499731   2.274751   1.018446  11.106364  -0.288984
   42  C  2  X   -0.051383   0.067259   0.589366  -0.035882   0.007368
   43  C  2  Y   -0.555456   1.019192  -0.065340   0.319435  -0.061334
   44  C  2  Z   -0.626160  -0.234099  -0.395905  -4.184742   1.876741
   45  C  2 XX    0.007546  -0.040650  -0.001119  -0.075617   0.062614
   46  C  2 YY   -0.062590   0.032274   0.000736   0.084134  -0.026655
   47  C  2 ZZ    0.055044   0.008375   0.000384  -0.008517  -0.035959
   48  C  2 XY   -0.007142   0.006395   0.039905   0.011626  -0.006923
   49  C  2 XZ   -0.005614   0.006761   0.015695   0.003895   0.006893
   50  C  2 YZ   -0.072517   0.084284   0.002920   0.059072   0.082797
   51  H  3  S    0.016523   0.015021  -0.000755  -0.022622  -0.017321
   52  H  3  S    0.672585  -0.543896  -0.072435  -0.847496   0.215085
   53  H  3  X    0.000851  -0.000125   0.005792   0.000371  -0.000669
   54  H  3  Y    0.010256   0.000194   0.000314   0.009759  -0.008409
   55  H  3  Z    0.008234  -0.000461   0.000135   0.005312   0.007063
   56  H  3  S    2.558129  -1.419965   0.300772   3.480203  -0.156351
   57  H  3  X   -0.007207   0.012004  -0.037641   0.016589  -0.007646
   58  H  3  Y   -0.082885   0.131647   0.016764   0.134824  -0.084047
   59  H  3  Z   -0.021318   0.003542   0.014486   0.141388  -0.096854
   60  H  4  S   -0.009880   0.012678  -0.001215  -0.022995  -0.023692
   61  H  4  S   -0.444225  -0.453856   0.061265   0.590575  -0.344854
   62  H  4  X    0.000569   0.000299   0.003536  -0.000372   0.000174
   63  H  4  Y    0.007563   0.002787   0.000002  -0.000177   0.003605
   64  H  4  Z    0.007171   0.002841  -0.000651  -0.010580  -0.011276
   65  H  4  S   -2.027262  -3.118672   0.026988   0.443713  -1.128675
   66  H  4  X   -0.002951  -0.003933  -0.069771   0.009067  -0.001633
   67  H  4  Y   -0.059537  -0.052702   0.007028   0.031962  -0.011934
   68  H  4  Z   -0.007668  -0.053259   0.013092   0.145393   0.029796
   69  H  5  S    0.002711  -0.002532   0.001721   0.025544  -0.037746
   70  H  5  S   -0.161643   0.859964   0.041344   0.402117   0.097474
   71  H  5  X   -0.000055   0.000173   0.004178  -0.000361  -0.000356
   72  H  5  Y   -0.002497   0.004207  -0.000313  -0.001304  -0.006211
   73  H  5  Z    0.003283  -0.007298  -0.000294  -0.002381  -0.014364
   74  H  5  S   -0.498535   3.803707  -0.355771  -4.342714   0.578730
   75  H  5  X    0.003180  -0.003300  -0.031225   0.005856  -0.004766
   76  H  5  Y    0.063419  -0.091337  -0.000864  -0.001426  -0.089997
   77  H  5  Z    0.051600   0.069166   0.012531   0.100901   0.038571

                     16         17         18         19         20
                    0.1117     0.1125     0.1167     0.1280     0.1462
                     A          A          A          A          A   
    1  C  1  S    0.005335  -0.001370  -0.038981  -0.014768  -0.014912
    2  C  1  S   -0.062270   0.002348  -0.204340  -0.019251  -0.120410
    3  C  1  S   -1.009211   0.106565   0.338571   0.521058   0.518157
    4  C  1  X    0.028741   0.234308  -0.007585   0.009842   0.005493
    5  C  1  Y    0.110199  -0.023342  -0.084404   0.238420   0.038084
    6  C  1  Z    0.003867   0.000149   0.121201   0.001266   0.130797
    7  C  1  X   -0.008557   0.188672   0.008416  -0.060631   0.001076
    8  C  1  Y   -0.416623   0.024050   0.299323  -0.930188  -0.169539
    9  C  1  Z   -1.254481   0.082420  -1.537326  -0.371740   1.546410
   10  C  1 XX    0.001111   0.000500   0.019902   0.016187  -0.039072
   11  C  1 YY   -0.000190  -0.000226   0.003812  -0.007739   0.048371
   12  C  1 ZZ   -0.000921  -0.000274  -0.023714  -0.008449  -0.009299
   13  C  1 XY    0.000242   0.001223  -0.001017  -0.002272   0.005952
   14  C  1 XZ    0.001163  -0.006990  -0.000530   0.000660  -0.001422
   15  C  1 YZ    0.024107  -0.001471  -0.007484   0.009254  -0.016872
   16  C  1  S   -5.660789   0.619519   5.164354   5.234402   0.155809
   17  C  1  X   -0.212030  -2.220993   0.129177  -0.342785  -0.145646
   18  C  1  Y   -0.251315   0.160041   1.826896  -6.059895  -2.412365
   19  C  1  Z   -3.644808   0.309333  -1.889505   1.695182   0.568334
   20  C  1 XX    0.045064  -0.010438  -0.160355  -0.035592  -0.099177
   21  C  1 YY    0.186792  -0.004165   0.337980   0.195219  -0.659060
   22  C  1 ZZ   -0.231855   0.014603  -0.177625  -0.159627   0.758237
   23  C  1 XY    0.009964  -0.034079   0.032804   0.020661  -0.037644
   24  C  1 XZ   -0.008719  -0.055711   0.004480   0.019636   0.025526
   25  C  1 YZ   -0.061396   0.008918  -0.013180   0.333572   0.319620
   26  C  2  S    0.008432  -0.001674  -0.036204  -0.026048   0.024792
   27  C  2  S    0.112162  -0.011876  -0.114077  -0.098460   0.013351
   28  C  2  S    0.492457  -0.007851   1.273963   0.765713  -2.189300
   29  C  2  X   -0.005563  -0.240881   0.002769   0.002062  -0.010323
   30  C  2  Y    0.181974   0.001501  -0.009508   0.001610  -0.092859
   31  C  2  Z    0.058854  -0.004965  -0.085583  -0.008491  -0.068124
   32  C  2  X   -0.055487  -0.223827   0.015389   0.037210  -0.045058
   33  C  2  Y   -0.361882   0.063065   0.141257   0.396175  -0.515652
   34  C  2  Z   -1.384617   0.115419  -0.870979   0.130946   1.082350
   35  C  2 XX   -0.004692  -0.000113   0.005597   0.013329  -0.011835
   36  C  2 YY    0.006064   0.000219   0.002365  -0.007606   0.017749
   37  C  2 ZZ   -0.001373  -0.000106  -0.007962  -0.005723  -0.005914
   38  C  2 XY    0.000668  -0.005976   0.000078  -0.001856   0.001952
   39  C  2 XZ   -0.001357  -0.004028   0.000115  -0.000947  -0.000287
   40  C  2 YZ   -0.016009   0.001337   0.004143  -0.017118   0.001786
   41  C  2  S    4.112216  -0.302945   2.573526  -0.894455  -1.962896
   42  C  2  X   -0.041514   2.242195  -0.079352   0.237452   0.051885
   43  C  2  Y   -2.819661   0.121635  -0.714486   3.490736   0.676419
   44  C  2  Z   -4.219870   0.381107  -0.084632   2.239098   1.068529
   45  C  2 XX    0.006278   0.004788  -0.128191  -0.070506  -0.023312
   46  C  2 YY   -0.308087   0.019125  -0.125830   0.039278   0.194667
   47  C  2 ZZ    0.301809  -0.023914   0.254020   0.031228  -0.171354
   48  C  2 XY   -0.026157   0.064022   0.001580   0.008533   0.014722
   49  C  2 XZ   -0.027956  -0.082144   0.010088   0.012821   0.016689
   50  C  2 YZ   -0.245989   0.028968   0.098648   0.144333   0.184234
   51  H  3  S   -0.021625  -0.001735   0.010083  -0.086740   0.104129
   52  H  3  S    2.256892  -0.246983  -0.576036  -1.772859   0.629153
   53  H  3  X   -0.001653  -0.000377   0.000971   0.001016  -0.000678
   54  H  3  Y   -0.019629   0.002270   0.011671   0.010863  -0.008284
   55  H  3  Z   -0.012245   0.001461  -0.001703   0.015074  -0.005242
   56  H  3  S    6.187044  -0.583997   0.072752  -3.821830  -0.746702
   57  H  3  X   -0.059259  -0.113572   0.022928   0.027155   0.008633
   58  H  3  Y   -0.609697   0.070483   0.255363   0.278037   0.211732
   59  H  3  Z   -0.389172   0.039968   0.073298   0.159280  -0.141266
   60  H  4  S    0.028946  -0.002579  -0.002856  -0.056964   0.098523
   61  H  4  S   -1.079032   0.046024  -1.668991  -3.128201   0.726111
   62  H  4  X   -0.000807  -0.000283  -0.000634  -0.001458  -0.001275
   63  H  4  Y   -0.010893   0.000714  -0.009477  -0.022899  -0.023827
   64  H  4  Z   -0.009027   0.000594  -0.000921  -0.011102   0.005959
   65  H  4  S   -3.882903   0.299856  -0.738368  -5.142281  -1.946277
   66  H  4  X   -0.014830   0.090478  -0.030760  -0.035341  -0.022362
   67  H  4  Y   -0.332436   0.014132  -0.435932  -0.570375  -0.471644
   68  H  4  Z   -0.305736   0.016613  -0.205388  -0.569738   0.403497
   69  H  5  S   -0.020233  -0.001168  -0.017808  -0.021364   0.225800
   70  H  5  S   -0.070446  -0.044729  -2.727632   1.124262   2.820580
   71  H  5  X   -0.000334   0.001570   0.001360  -0.001017   0.000862
   72  H  5  Y   -0.007655   0.001030   0.026116  -0.016435   0.011474
   73  H  5  Z    0.000426  -0.000243  -0.013640   0.014730  -0.000295
   74  H  5  S   -1.299914   0.089857  -4.208004   6.580515   2.780936
   75  H  5  X    0.009520   0.121799   0.034162  -0.030732   0.018245
   76  H  5  Y    0.000536  -0.000211   0.665898  -0.421427   0.142186
   77  H  5  Z    0.100301  -0.015660  -0.423271   0.168739   0.436139

                     21         22         23         24         25
                    0.1683     0.1952     0.2195     0.2532     0.2852
                     A          A          A          A          A   
    1  C  1  S    0.049055   0.019009   0.000444  -0.005378   0.009871
    2  C  1  S    0.158116   0.012764  -0.000651  -0.030907   0.137983
    3  C  1  S   -2.120560  -0.581488   0.013447   0.758342  -0.390041
    4  C  1  X   -0.001062   0.006996  -0.003000  -0.010268   0.000190
    5  C  1  Y   -0.067311   0.124067  -0.016058  -0.199668  -0.007738
    6  C  1  Z   -0.061645  -0.020844   0.000004   0.074807   0.017102
    7  C  1  X    0.002739   0.052119   0.069211  -0.014351  -0.004499
    8  C  1  Y   -0.097009   0.603100  -0.040539  -0.223495  -0.085729
    9  C  1  Z   -1.020733   1.218229   0.100508   0.759824  -2.388713
   10  C  1 XX    0.014480  -0.024662  -0.005665  -0.015075   0.023975
   11  C  1 YY   -0.006082   0.025478   0.004917   0.017118   0.073608
   12  C  1 ZZ   -0.008398  -0.000816   0.000747  -0.002043  -0.097583
   13  C  1 XY   -0.000753   0.004024  -0.046866   0.004828   0.003577
   14  C  1 XZ   -0.002628   0.002500   0.002564  -0.001561   0.000853
   15  C  1 YZ   -0.037804   0.037016  -0.001775  -0.031555   0.013342
   16  C  1  S  -18.191106 -20.821474  -1.076778 -10.354695  -2.408910
   17  C  1  X   -0.012236   0.144129  -0.020724  -0.102620   0.045488
   18  C  1  Y   -0.153154   2.466711  -0.030486  -1.742999   0.994656
   19  C  1  Z   -6.188727  -5.899231  -0.305867  -2.274107  -4.044089
   20  C  1 XX    0.179070   0.117465   0.016136   0.081721   0.271400
   21  C  1 YY    0.146979  -0.555954  -0.037750  -0.210261  -0.134220
   22  C  1 ZZ   -0.326049   0.438489   0.021614   0.128540  -0.137181
   23  C  1 XY   -0.002054  -0.051519   0.172533  -0.036436  -0.034441
   24  C  1 XZ    0.025568  -0.002890   0.018477   0.048160  -0.005414
   25  C  1 YZ    0.446900  -0.191352   0.036834   0.855343  -0.218054
   26  C  2  S   -0.045650  -0.017745  -0.000416  -0.004191  -0.034146
   27  C  2  S   -0.197636  -0.049338  -0.000505  -0.000249  -0.163575
   28  C  2  S    1.622471  -0.508039  -0.021001  -0.367857   0.610847
   29  C  2  X   -0.006074   0.008873   0.041383   0.018825   0.006840
   30  C  2  Y   -0.037624   0.061250   0.013076   0.287570   0.038710
   31  C  2  Z   -0.109143  -0.007758  -0.002168   0.021713   0.251004
   32  C  2  X   -0.009173   0.060678   0.235850   0.029762  -0.033059
   33  C  2  Y   -0.151415   0.781755   0.047984   0.389041  -0.411735
   34  C  2  Z   -1.212404   1.118076   0.092609   0.799653  -1.564911
   35  C  2 XX   -0.016055   0.012124  -0.002217   0.014653  -0.029430
   36  C  2 YY    0.011257   0.003797   0.002948  -0.021502  -0.021979
   37  C  2 ZZ    0.004798  -0.015922  -0.000731   0.006848   0.051409
   38  C  2 XY    0.003185  -0.001104  -0.021847  -0.001984  -0.000216
   39  C  2 XZ    0.001136  -0.003888  -0.009167   0.000813   0.000370
   40  C  2 YZ    0.018262  -0.052414   0.001446   0.010023   0.007355
   41  C  2  S   18.424197  20.961055   1.096642  11.000323   4.094461
   42  C  2  X   -0.143375  -0.068705   0.169254   0.103611  -0.091891
   43  C  2  Y   -1.673730  -1.007099  -0.005382   1.604579  -1.311028
   44  C  2  Z   -6.130752  -5.249064  -0.315462  -2.410871  -1.640777
   45  C  2 XX   -0.183885  -0.162837  -0.023301  -0.000418  -0.188414
   46  C  2 YY   -0.169621   0.196795   0.046774   0.200186  -0.180251
   47  C  2 ZZ    0.353505  -0.033958  -0.023473  -0.199768   0.368664
   48  C  2 XY    0.005987   0.031740  -0.253306   0.034705   0.001444
   49  C  2 XZ    0.020560   0.031253   0.115104   0.031534  -0.016602
   50  C  2 YZ    0.335368   0.278165   0.025879   0.613564  -0.336206
   51  H  3  S    0.178033  -0.179083  -0.003370  -0.092085   0.024358
   52  H  3  S   -0.260783  -3.002339  -0.251597  -2.932106   2.143249
   53  H  3  X    0.000883   0.000019   0.004123  -0.000627  -0.000278
   54  H  3  Y    0.013034  -0.002275  -0.000077  -0.003125  -0.002674
   55  H  3  Z    0.004946  -0.007254  -0.000215  -0.004738   0.012420
   56  H  3  S    3.152173   1.713739   0.150136   0.157282   2.702757
   57  H  3  X    0.056480   0.055680  -0.520019   0.019079  -0.086724
   58  H  3  Y    0.591191   0.625510   0.072033  -0.239956  -0.708739
   59  H  3  Z    0.160275  -0.197551   0.028356   0.218161  -0.238399
   60  H  4  S   -0.161434   0.216283  -0.002474   0.013684  -0.017498
   61  H  4  S   -0.624657   3.605777   0.007027  -0.756557  -1.149003
   62  H  4  X    0.001340  -0.000082   0.000648  -0.000053  -0.000936
   63  H  4  Y    0.019891   0.001901   0.000556  -0.000080  -0.015507
   64  H  4  Z    0.022090  -0.001407   0.001230   0.024434   0.008913
   65  H  4  S   -2.013726   0.902652  -0.026771  -0.457092  -0.898861
   66  H  4  X   -0.000374   0.007520   0.728823  -0.075002  -0.042151
   67  H  4  Y    0.136585   0.194405  -0.032909  -0.333116  -0.587816
   68  H  4  Z    0.219186   0.138493   0.023720   0.422593   0.844647
   69  H  5  S    0.029415  -0.054379   0.008857   0.155962  -0.048284
   70  H  5  S    1.525352   1.097058   0.231177   2.746910  -1.911620
   71  H  5  X   -0.000811   0.000203  -0.003082   0.001135   0.000811
   72  H  5  Y   -0.015750   0.001848   0.000529   0.016442   0.012589
   73  H  5  Z   -0.008013   0.016025  -0.001110  -0.017813   0.017792
   74  H  5  S   -1.442270  -3.068144  -0.131051   0.012657  -2.732440
   75  H  5  X   -0.011997   0.009549  -0.831523   0.053929   0.049519
   76  H  5  Y   -0.471311  -0.053089   0.025094  -0.030956   0.830170
   77  H  5  Z   -0.040545   0.605637  -0.003377  -0.519114   0.870839

                     26         27         28         29         30
                    0.3082     0.3147     0.3552     0.3773     0.4045
                     A          A          A          A          A   
    1  C  1  S    0.001978  -0.030350  -0.000637  -0.019894   0.040104
    2  C  1  S    0.008972  -0.127840   0.000467  -0.059088  -0.017054
    3  C  1  S   -0.079623   1.402532   0.040197   1.782043  -2.106389
    4  C  1  X   -0.057704  -0.016891  -0.245706   0.019223   0.004417
    5  C  1  Y    0.012283  -0.138631   0.015248   0.278700   0.054835
    6  C  1  Z    0.017716  -0.252745  -0.000843  -0.075992  -0.000557
    7  C  1  X   -0.347546   0.003067  -0.965877   0.189202   0.022077
    8  C  1  Y   -0.011285   0.219171   0.051441   3.101204   0.294106
    9  C  1  Z   -0.185095   2.264423   0.044114   1.726928  -1.799404
   10  C  1 XX   -0.002088  -0.026743   0.000654  -0.013534   0.018292
   11  C  1 YY    0.005381   0.001772  -0.001069   0.006406   0.008569
   12  C  1 ZZ   -0.003294   0.024971   0.000415   0.007128  -0.026861
   13  C  1 XY   -0.034472   0.000420   0.011100   0.000733  -0.000542
   14  C  1 XZ   -0.018163  -0.002839  -0.029571  -0.002871  -0.000561
   15  C  1 YZ    0.003410  -0.023052   0.001944  -0.050321  -0.010087
   16  C  1  S   -0.622542   5.244198   0.061860   0.083524  -6.272744
   17  C  1  X   -0.085024  -0.236335  -1.110496   0.286063   0.108858
   18  C  1  Y    0.277047  -3.593367   0.084867   4.844204   1.576893
   19  C  1  Z   -0.223055   1.480000   0.002892  -0.077220  -1.787728
   20  C  1 XX    0.073128  -0.078924  -0.030364  -0.077978   0.528351
   21  C  1 YY   -0.026103  -0.557989   0.001016  -0.331419   0.610483
   22  C  1 ZZ   -0.047025   0.636913   0.029348   0.409397  -1.138834
   23  C  1 XY    0.513159  -0.001840  -0.226812  -0.027041  -0.013041
   24  C  1 XZ   -0.002289   0.079336   0.078894   0.011566   0.012924
   25  C  1 YZ   -0.083084   1.046372  -0.009944   0.294712   0.272985
   26  C  2  S   -0.002656   0.027114   0.000144   0.010092   0.032266
   27  C  2  S   -0.010503   0.108441   0.001047   0.027894  -0.012875
   28  C  2  S    0.128200  -1.532602  -0.041802  -0.539704  -0.280846
   29  C  2  X   -0.112012  -0.007400   0.045032   0.002763  -0.014756
   30  C  2  Y    0.005683   0.034903   0.001149   0.034641  -0.203082
   31  C  2  Z    0.002524   0.020109  -0.002308  -0.018614   0.034943
   32  C  2  X   -0.631824  -0.079860   0.446003   0.037210  -0.176948
   33  C  2  Y    0.095520  -0.503752   0.007177   0.193006  -2.249812
   34  C  2  Z   -0.218716   2.957157   0.049691   2.014793  -2.939881
   35  C  2 XX    0.002510   0.028620  -0.001241   0.007214   0.005353
   36  C  2 YY   -0.008627   0.051024   0.001209   0.011087  -0.020847
   37  C  2 ZZ    0.006117  -0.079644   0.000032  -0.018301   0.015494
   38  C  2 XY    0.034830   0.004439  -0.010191   0.000308  -0.002952
   39  C  2 XZ    0.024755  -0.000083   0.015166   0.000426  -0.000698
   40  C  2 YZ   -0.000406  -0.021218  -0.000531   0.006368  -0.007414
   41  C  2  S    0.506803  -4.192378   0.038514   0.644688   0.715747
   42  C  2  X   -0.478803   0.170517   0.538087  -0.023379  -0.219358
   43  C  2  Y   -0.185060   2.619301  -0.014698  -0.634963  -2.739636
   44  C  2  Z   -0.347278   3.923481  -0.010541   0.597318  -1.907179
   45  C  2 XX   -0.070908   0.349332  -0.025849   0.147162   0.890089
   46  C  2 YY    0.022083   0.375691   0.036914   0.769493  -0.947155
   47  C  2 ZZ    0.048825  -0.725022  -0.011066  -0.916655   0.057066
   48  C  2 XY   -0.359549  -0.018800  -0.176331   0.049234  -0.173629
   49  C  2 XZ   -0.169687   0.078851   0.327781   0.042901   0.007166
   50  C  2 YZ   -0.072995   1.141168  -0.025478   0.722676   0.124182
   51  H  3  S    0.003948  -0.021610  -0.000570   0.054866  -0.034301
   52  H  3  S    0.224649  -2.914290  -0.095530  -3.290028   6.764824
   53  H  3  X    0.004924   0.000083   0.000129  -0.000023   0.000076
   54  H  3  Y   -0.000263  -0.000737  -0.000066   0.000501   0.002030
   55  H  3  Z    0.002787  -0.034480  -0.000116  -0.009443   0.008903
   56  H  3  S    0.284256  -2.879400  -0.007748  -0.560496   3.004995
   57  H  3  X    1.508312   0.192288  -0.385520   0.051230  -0.134028
   58  H  3  Y   -0.194883   1.018066   0.036589   0.476802  -1.417864
   59  H  3  Z    0.070482  -1.072049   0.026795   0.749450  -0.885814
   60  H  4  S    0.006708  -0.051524  -0.001304   0.026024   0.039182
   61  H  4  S    0.032932  -0.584867   0.009752   4.336391   0.151038
   62  H  4  X    0.005003  -0.000074  -0.011879   0.000381   0.000495
   63  H  4  Y   -0.000804  -0.000914   0.000554   0.004954   0.003897
   64  H  4  Z   -0.000334   0.004235  -0.000049   0.002791   0.000625
   65  H  4  S    0.081713  -1.329084   0.012878   4.143013   0.208389
   66  H  4  X    1.282411   0.095562   0.715621  -0.004580  -0.043329
   67  H  4  Y   -0.110858   0.132889  -0.040992  -0.090748  -0.294692
   68  H  4  Z   -0.051857   0.786276   0.011736   1.549720  -0.433622
   69  H  5  S   -0.000644   0.045256  -0.002260   0.009736   0.021561
   70  H  5  S   -0.215666   3.294769  -0.016878  -2.723972   0.534729
   71  H  5  X   -0.006402  -0.000017  -0.009981   0.000958  -0.000182
   72  H  5  Y    0.000322   0.008321   0.000534   0.014404   0.000564
   73  H  5  Z    0.002635  -0.032669   0.000151  -0.018101   0.001495
   74  H  5  S   -0.315226   3.640885  -0.044198  -3.870331  -0.953362
   75  H  5  X   -0.458174  -0.031819   1.619324  -0.035920   0.013247
   76  H  5  Y    0.083806  -0.536145  -0.090656  -0.385121  -0.219118
   77  H  5  Z   -0.006597   0.417160   0.005565  -0.914849  -0.193539

                     31         32         33         34         35
                    0.4382     0.4436     0.4482     0.4763     0.4834
                     A          A          A          A          A   
    1  C  1  S    0.065576   0.011530   0.004185   0.020684   0.004439
    2  C  1  S    0.030383  -0.049408  -0.002730  -0.026432   0.033709
    3  C  1  S   -4.238995   0.885281  -0.016812  -2.110697  -0.206520
    4  C  1  X    0.005921   0.038906  -0.246700  -0.015797  -0.049377
    5  C  1  Y    0.026847  -0.067633   0.009469  -0.130959  -0.049491
    6  C  1  Z    0.082631  -0.002440   0.015261  -0.018949   0.098876
    7  C  1  X    0.025039   0.352210  -1.764657  -0.260336  -0.268771
    8  C  1  Y   -0.614526   1.173319   0.501302  -3.541816   0.619987
    9  C  1  Z    5.915659   3.713849   0.702304  -0.813159   0.816733
   10  C  1 XX    0.017746  -0.008714  -0.000310  -0.013016   0.002755
   11  C  1 YY   -0.026254  -0.005103  -0.001601   0.012501  -0.001688
   12  C  1 ZZ    0.008508   0.013817   0.001911   0.000515  -0.001067
   13  C  1 XY   -0.002914   0.000879  -0.002169   0.001651  -0.005277
   14  C  1 XZ    0.000661  -0.000312   0.013861   0.000373  -0.031235
   15  C  1 YZ    0.020214   0.011501  -0.000845  -0.011770  -0.015333
   16  C  1  S   -6.816311  -3.889856  -1.088160   3.736310  -1.397892
   17  C  1  X    0.005892   0.259719  -1.109656  -0.076810   0.167335
   18  C  1  Y   -0.581654   1.593958   0.413251  -0.757204   0.214566
   19  C  1  Z    1.123288   0.220406   0.003230   0.786284  -0.016431
   20  C  1 XX    0.573362   0.247180   0.114646  -0.463955   0.065281
   21  C  1 YY   -1.921210  -0.751727  -0.154684   0.464703   0.026281
   22  C  1 ZZ    1.347848   0.504547   0.040038  -0.000748  -0.091563
   23  C  1 XY   -0.159722  -0.118927   0.239382   0.098917  -0.319125
   24  C  1 XZ    0.027223  -0.238810   0.083708  -0.030585   1.360015
   25  C  1 YZ    0.603327  -2.607540  -0.391072  -0.129086  -0.445760
   26  C  2  S    0.062538   0.028189   0.003875   0.054845   0.000511
   27  C  2  S   -0.000150  -0.023586  -0.009559   0.016329  -0.035205
   28  C  2  S   -6.415196  -2.455896  -0.377175  -4.392647  -0.477678
   29  C  2  X    0.003512  -0.022900   0.254314  -0.001470  -0.244278
   30  C  2  Y    0.127256   0.066029  -0.005407  -0.135705   0.004708
   31  C  2  Z    0.028911  -0.082797  -0.000044  -0.181743   0.065645
   32  C  2  X   -0.065794   0.184527   0.722833  -0.115240  -1.465048
   33  C  2  Y   -0.710287   3.177409   0.386413  -1.486163   0.240452
   34  C  2  Z    3.054072   2.770881   0.506623  -2.386654   0.729145
   35  C  2 XX    0.032838  -0.000700  -0.000459  -0.009959  -0.005297
   36  C  2 YY   -0.012434   0.026662   0.004266   0.016130   0.004437
   37  C  2 ZZ   -0.020404  -0.025962  -0.003807  -0.006171   0.000860
   38  C  2 XY   -0.003658   0.003128  -0.004102   0.002344   0.004701
   39  C  2 XZ   -0.001714   0.001512   0.015542   0.001953   0.002517
   40  C  2 YZ   -0.020689   0.054319   0.007397   0.012853   0.012073
   41  C  2  S   -0.763801   1.351813   0.494743  -4.804487   1.144594
   42  C  2  X   -0.002452  -0.133619   1.170990   0.008995  -0.509276
   43  C  2  Y    0.506876   0.047133  -0.101523  -0.259466   0.057120
   44  C  2  Z   -0.221937  -0.132592  -0.089886   0.156688  -0.102260
   45  C  2 XX    0.040262   0.221008   0.115578  -0.132687  -0.224424
   46  C  2 YY    0.513840   1.355512   0.087683   0.099139  -0.021069
   47  C  2 ZZ   -0.554103  -1.576520  -0.203260   0.033548   0.245493
   48  C  2 XY    0.014542   0.060866   0.666782   0.025158  -0.933050
   49  C  2 XZ   -0.003468   0.114793  -1.044374  -0.080093  -0.266327
   50  C  2 YZ   -0.378777  -0.826274  -0.009736  -0.365368   0.310720
   51  H  3  S   -0.093343   0.185136   0.029056   0.127414   0.060677
   52  H  3  S    1.207286  -3.163913  -0.544869   6.551384  -0.557907
   53  H  3  X   -0.001482  -0.000665   0.017159   0.002734  -0.021284
   54  H  3  Y   -0.018729   0.013159  -0.000025   0.028932   0.005023
   55  H  3  Z   -0.020709   0.025397   0.004092   0.002891   0.011271
   56  H  3  S   -0.044113  -0.201674  -0.020171   0.916295  -0.123061
   57  H  3  X   -0.012082   0.043508  -0.743648  -0.268901   1.367191
   58  H  3  Y   -0.421314  -0.193687   0.091579  -3.253008   0.147671
   59  H  3  Z   -0.093147   1.440685   0.163762  -0.990237  -0.556454
   60  H  4  S   -0.042000  -0.082424  -0.017184   0.015667  -0.068592
   61  H  4  S    6.180401   9.211856   1.847277  -5.712748   1.621486
   62  H  4  X    0.000514   0.001367  -0.016877  -0.000321   0.004595
   63  H  4  Y    0.007391  -0.018153  -0.001415   0.004123   0.001386
   64  H  4  Z   -0.006045  -0.011737  -0.000157  -0.000984   0.015044
   65  H  4  S    1.433395   1.851056   0.392459  -0.880274   0.191761
   66  H  4  X    0.066337  -0.024022   1.315012  -0.060565   0.176840
   67  H  4  Y    1.126399   2.961687   0.478253  -1.584588   0.370823
   68  H  4  Z    1.837777   0.110550   0.070839  -1.182029  -0.111566
   69  H  5  S   -0.176346   0.090757   0.012671   0.107602   0.047015
   70  H  5  S    9.070348  -2.582213  -0.436629   4.530462  -0.337243
   71  H  5  X   -0.000345   0.001475  -0.008072   0.001302  -0.012884
   72  H  5  Y   -0.006789  -0.005675  -0.000540   0.021984   0.006152
   73  H  5  Z    0.007279  -0.004179  -0.001076   0.003049  -0.003885
   74  H  5  S    1.539570  -0.515773  -0.120168   0.773751   0.062399
   75  H  5  X   -0.123859  -0.014151   0.439961  -0.158804   1.111526
   76  H  5  Y   -2.105555   1.495823   0.214476  -2.478265  -0.154917
   77  H  5  Z    1.138663   0.978664   0.073931   1.415899  -0.127635

                     36         37         38         39         40
                    0.4865     0.4935     0.5048     0.5566     0.5629
                     A          A          A          A          A   
    1  C  1  S    0.013308   0.103869  -0.026171   0.077615   0.016768
    2  C  1  S   -0.102611  -0.004127  -0.027555   0.021602   0.006417
    3  C  1  S   -1.716518  -8.198433   4.370726  -8.313678  -1.667504
    4  C  1  X   -0.012482   0.007875  -0.009316  -0.006818   0.070712
    5  C  1  Y    0.167867   0.003093  -0.110653  -0.063771  -0.008976
    6  C  1  Z   -0.227475   0.324743  -0.088960  -0.141988  -0.032624
    7  C  1  X   -0.215493  -0.016700  -0.501993  -0.251880   1.338937
    8  C  1  Y   -0.323970  -1.066949  -7.079852  -0.147532  -0.069200
    9  C  1  Z   -2.730236  -2.656364   1.443169  -1.629309  -0.523319
   10  C  1 XX   -0.010371   0.008637  -0.006268   0.025978   0.006337
   11  C  1 YY    0.013231   0.031835  -0.009175  -0.007542  -0.002654
   12  C  1 ZZ   -0.002860  -0.040471   0.015443  -0.018437  -0.003683
   13  C  1 XY    0.000195   0.001796  -0.000543  -0.003358   0.001942
   14  C  1 XZ   -0.005270   0.001621  -0.000528   0.009340  -0.054843
   15  C  1 YZ    0.053934  -0.002997   0.013428  -0.028249  -0.001849
   16  C  1  S    4.294735  -5.058788  -4.777367 -14.401985  -3.361743
   17  C  1  X    0.012492  -0.034800  -0.116842   0.010369   0.230793
   18  C  1  Y   -0.113312  -0.619773  -1.883148   0.923509   0.189000
   19  C  1  Z    0.349016  -0.218735  -0.973629  -4.772070  -1.115626
   20  C  1 XX   -0.291216   0.311033   0.552817  -0.078385   0.200467
   21  C  1 YY    0.535294   2.649852  -0.683402  -1.746575  -0.498179
   22  C  1 ZZ   -0.244078  -2.960884   0.130584   1.824959   0.297712
   23  C  1 XY   -0.024911   0.183664  -0.097269  -0.413352   1.549349
   24  C  1 XZ    0.480724  -0.070456   0.102657  -0.352484   2.139614
   25  C  1 YZ    0.704046   0.420160   0.272595   0.174268  -0.045797
   26  C  2  S   -0.007049  -0.088258  -0.030052  -0.050518  -0.011602
   27  C  2  S    0.087210  -0.082189  -0.009493   0.132491   0.026259
   28  C  2  S    2.324860  10.082409   2.670775   2.880530   0.761587
   29  C  2  X   -0.060519   0.011620  -0.006305   0.071490  -0.311119
   30  C  2  Y    0.074848  -0.026238  -0.017178   0.000128   0.015166
   31  C  2  Z   -0.185894   0.177207  -0.002205  -0.084755  -0.016276
   32  C  2  X   -0.471680   0.190234   0.165643   0.266841  -1.400227
   33  C  2  Y   -0.482311   1.082817   3.247155   0.591962   0.126786
   34  C  2  Z   -2.976208  -3.045699   2.596263  -1.501052  -0.467762
   35  C  2 XX    0.010654  -0.049957   0.003374   0.010204   0.004409
   36  C  2 YY   -0.013318   0.004296   0.006819  -0.025862  -0.008398
   37  C  2 ZZ    0.002664   0.045661  -0.010193   0.015658   0.003989
   38  C  2 XY   -0.001940   0.004274   0.000929  -0.008902   0.026124
   39  C  2 XZ   -0.000804   0.000306   0.001551   0.003962  -0.032782
   40  C  2 YZ   -0.030143   0.006954   0.009849  -0.013615  -0.000841
   41  C  2  S   -4.124063   5.360538   5.762092  15.332488   3.619095
   42  C  2  X   -0.152775   0.058493   0.058847  -0.006237  -0.396382
   43  C  2  Y   -0.218294   0.465065   0.963833  -1.182288  -0.230479
   44  C  2  Z    0.341345  -0.721522  -0.701621  -3.751377  -0.895735
   45  C  2 XX    0.194059  -0.327926  -0.023534  -0.377066  -0.087499
   46  C  2 YY    0.326826  -0.526406   1.474569  -0.932868  -0.194782
   47  C  2 ZZ   -0.520886   0.854331  -1.451035   1.309934   0.282281
   48  C  2 XY   -0.271342   0.045410   0.061004  -0.059379   0.042201
   49  C  2 XZ   -0.226555   0.052942  -0.083266  -0.278495   1.879055
   50  C  2 YZ   -0.908679   0.239768  -0.335183   1.001737   0.134490
   51  H  3  S   -0.177133  -0.025580   0.046883  -0.151243  -0.024594
   52  H  3  S    2.309649  -3.902088  -7.306585  -2.851667  -0.562868
   53  H  3  X   -0.006876   0.001932  -0.000362  -0.001751  -0.002282
[...]
 II,JST,KST,LST =  2  1  1  1 NREC =         1 INTLOC =    1
 II,JST,KST,LST =  3  1  1  1 NREC =         1 INTLOC =    1
 II,JST,KST,LST =  4  1  1  1 NREC =         1 INTLOC =    1
 II,JST,KST,LST =  5  1  1  1 NREC =         1 INTLOC =    1
 II,JST,KST,LST =  6  1  1  1 NREC =         1 INTLOC =    1
 II,JST,KST,LST =  7  1  1  1 NREC =         1 INTLOC =    4
 II,JST,KST,LST =  8  1  1  1 NREC =         1 INTLOC =   49
 II,JST,KST,LST =  9  1  1  1 NREC =         1 INTLOC =   49
 II,JST,KST,LST = 10  1  1  1 NREC =         1 INTLOC =  133
 II,JST,KST,LST = 11  1  1  1 NREC =         1 INTLOC =  395
 II,JST,KST,LST = 12  1  1  1 NREC =         1 INTLOC =  395
 II,JST,KST,LST = 13  1  1  1 NREC =         1 INTLOC =  395
 II,JST,KST,LST = 14  1  1  1 NREC =         1 INTLOC =  395
 II,JST,KST,LST = 15  1  1  1 NREC =         1 INTLOC =  395
 II,JST,KST,LST = 16  1  1  1 NREC =         1 INTLOC = 2660
 II,JST,KST,LST = 17  1  1  1 NREC =         1 INTLOC = 4155
 II,JST,KST,LST = 18  1  1  1 NREC =         1 INTLOC = 5136
 II,JST,KST,LST = 19  1  1  1 NREC =         1 INTLOC = 7559
 II,JST,KST,LST = 20  1  1  1 NREC =         1 INTLOC = 8639
 II,JST,KST,LST = 21  1  1  1 NREC =         2 INTLOC =  351
 II,JST,KST,LST = 22  1  1  1 NREC =         6 INTLOC =  920
 II,JST,KST,LST = 23  1  1  1 NREC =         6 INTLOC =  920
 II,JST,KST,LST = 24  1  1  1 NREC =         6 INTLOC =  920
 II,JST,KST,LST = 25  1  1  1 NREC =         7 INTLOC =  974
 II,JST,KST,LST = 26  1  1  1 NREC =         7 INTLOC =  974
 II,JST,KST,LST = 27  1  1  1 NREC =         8 INTLOC =10751
 II,JST,KST,LST = 28  1  1  1 NREC =         9 INTLOC = 8795
 II,JST,KST,LST = 29  1  1  1 NREC =        13 INTLOC = 9364
 II,JST,KST,LST = 30  1  1  1 NREC =        13 INTLOC = 9364
 II,JST,KST,LST = 31  1  1  1 NREC =        14 INTLOC =14272
 II,JST,KST,LST = 32  1  1  1 NREC =        17 INTLOC = 8387
 II,JST,KST,LST = 33  1  1  1 NREC =        17 INTLOC =13757
 II,JST,KST,LST = 34  1  1  1 NREC =        22 INTLOC = 5603
 II,JST,KST,LST = 35  1  1  1 NREC =        23 INTLOC =10625
 II,JST,KST,LST = 36  1  1  1 NREC =        24 INTLOC = 1930
 II,JST,KST,LST = 37  1  1  1 NREC =        25 INTLOC =  540
 II,JST,KST,LST = 38  1  1  1 NREC =        28 INTLOC =14155
 II,JST,KST,LST = 39  1  1  1 NREC =        28 INTLOC =14155
 II,JST,KST,LST = 40  1  1  1 NREC =        45 INTLOC = 5413
 II,JST,KST,LST = 41  1  1  1 NREC =        45 INTLOC = 5413
 II,JST,KST,LST = 42  1  1  1 NREC =        45 INTLOC = 5413
 II,JST,KST,LST = 43  1  1  1 NREC =        56 INTLOC = 2976
 II,JST,KST,LST = 44  1  1  1 NREC =        58 INTLOC = 4482
 II,JST,KST,LST = 45  1  1  1 NREC =        59 INTLOC =13729
 II,JST,KST,LST = 46  1  1  1 NREC =        63 INTLOC = 9310
 II,JST,KST,LST = 47  1  1  1 NREC =        68 INTLOC = 6753
 II,JST,KST,LST = 48  1  1  1 NREC =        77 INTLOC = 9955
 II,JST,KST,LST = 49  1  1  1 NREC =        94 INTLOC = 6685
 II,JST,KST,LST = 50  1  1  1 NREC =        98 INTLOC = 3260
 II,JST,KST,LST = 51  1  1  1 NREC =       104 INTLOC = 1759
 II,JST,KST,LST = 52  1  1  1 NREC =       129 INTLOC = 5521
 II,JST,KST,LST = 53  1  1  1 NREC =       132 INTLOC =13572
 II,JST,KST,LST = 54  1  1  1 NREC =       140 INTLOC =14819
 II,JST,KST,LST = 55  1  1  1 NREC =       143 INTLOC =10429
 II,JST,KST,LST = 56  1  1  1 NREC =       155 INTLOC = 4811
 II,JST,KST,LST = 57  1  1  1 NREC =       167 INTLOC =  776
 II,JST,KST,LST = 58  1  1  1 NREC =       172 INTLOC =12488
 II,JST,KST,LST = 59  1  1  1 NREC =       180 INTLOC = 7622
 II,JST,KST,LST = 60  1  1  1 NREC =       206 INTLOC =13839
 II,JST,KST,LST = 61  1  1  1 NREC =       206 INTLOC =13839
 II,JST,KST,LST = 62  1  1  1 NREC =       223 INTLOC =10808
 II,JST,KST,LST = 63  1  1  1 NREC =       235 INTLOC = 3515
 II,JST,KST,LST = 64  1  1  1 NREC =       244 INTLOC = 7303
 II,JST,KST,LST = 65  1  1  1 NREC =       273 INTLOC = 6817
 II,JST,KST,LST = 66  1  1  1 NREC =       279 INTLOC = 9278
 SCHWARZ INEQUALITY TEST SKIPPED       71160 INTEGRAL BLOCKS.
 TOTAL NUMBER OF NONZERO TWO-ELECTRON INTEGRALS =            65950033
       4406 INTEGRAL RECORDS WERE STORED ON DISK FILE  8.
  ...... END OF TWO-ELECTRON INTEGRALS .....
 CPU     0: STEP CPU TIME=     0.27 TOTAL CPU TIME=         23.8 (      0.4 MIN)
 TOTAL WALL CLOCK TIME=         24.1 SECONDS, CPU UTILIZATION IS    98.43%

          ---------------------------------------------
          MONOMER ELECTROSTATIC INTERACTION (OWN BASIS)
          ---------------------------------------------

          -------------
          GUESS OPTIONS
          -------------
          GUESS =MOSAVED           NORB  =       0          NORDER=       0
          MIX   =       F          PRTMO =       F          PUNMO =       F
          TOLZ  = 1.0E-08          TOLE  = 1.0E-05
          SYMDEN=       F          PURIFY=       F

 INITIAL GUESS ORBITALS GENERATED BY MOSAVED  ROUTINE.

 STATISTICS FOR GENERATION OF SYMMETRY ORBITAL -Q- MATRIX
 NUMBER OF CARTESIAN ATOMIC ORBITALS=        154
 NUMBER OF SPHERICAL CONTAMINANTS DROPPED=     8
 NUMBER OF LINEARLY DEPENDENT MOS DROPPED=     0
 TOTAL NUMBER OF MOS IN VARIATION SPACE=     146
 ...... END OF INITIAL ORBITAL SELECTION ......
 CPU     0: STEP CPU TIME=     0.01 TOTAL CPU TIME=         23.8 (      0.4 MIN)
 TOTAL WALL CLOCK TIME=         24.1 SECONDS, CPU UTILIZATION IS    98.43%

          ---------------------------
                  UHF SCF CALCULATION
          ---------------------------

 FINAL UHF ENERGY IS     -155.3094036212 AFTER   1 ITERATIONS
 ...... END OF UHF CALCULATION ......
 CPU     0: STEP CPU TIME=     0.08 TOTAL CPU TIME=         23.8 (      0.4 MIN)
 TOTAL WALL CLOCK TIME=         24.2 SECONDS, CPU UTILIZATION IS    98.43%

          -------------
          GUESS OPTIONS
          -------------
          GUESS =MOSAVED           NORB  =       0          NORDER=       0
          MIX   =       F          PRTMO =       F          PUNMO =       F
          TOLZ  = 1.0E-08          TOLE  = 1.0E-05
          SYMDEN=       F          PURIFY=       F

 INITIAL GUESS ORBITALS GENERATED BY MOSAVED  ROUTINE.

 STATISTICS FOR GENERATION OF SYMMETRY ORBITAL -Q- MATRIX
 NUMBER OF CARTESIAN ATOMIC ORBITALS=        154
 NUMBER OF SPHERICAL CONTAMINANTS DROPPED=     8
 NUMBER OF LINEARLY DEPENDENT MOS DROPPED=     0
 TOTAL NUMBER OF MOS IN VARIATION SPACE=     146
 ...... END OF INITIAL ORBITAL SELECTION ......
 CPU     0: STEP CPU TIME=     0.00 TOTAL CPU TIME=         23.9 (      0.4 MIN)
 TOTAL WALL CLOCK TIME=         24.2 SECONDS, CPU UTILIZATION IS    98.44%

          ---------------------------
                  UHF SCF CALCULATION
          ---------------------------

 DIRECT SCF CALCULATION, SCHWRZ=T   FDIFF=T
 SCHWARZ INEQUALITY OVERHEAD:     11926 INTEGRALS, T=        0.00

 FINAL UHF ENERGY IS     -331.0468318110 AFTER   1 ITERATIONS
 ...... END OF UHF CALCULATION ......
 CPU     0: STEP CPU TIME=     0.27 TOTAL CPU TIME=         24.1 (      0.4 MIN)
 TOTAL WALL CLOCK TIME=         24.5 SECONDS, CPU UTILIZATION IS    98.41%

 XEDA STEP ENERGY SUMMATION
 ETOT =       -155.30940362     ENUC =        102.33030452
 EEXCH=        -22.94928507

          --------------------------------------------------
          MONOMER EXCHANGE-REPULSION INTERACTION (OWN BASIS)
          --------------------------------------------------

          -------------
          GUESS OPTIONS
          -------------
          GUESS =MOSAVED           NORB  =       0          NORDER=       0
          MIX   =       F          PRTMO =       F          PUNMO =       F
          TOLZ  = 1.0E-08          TOLE  = 1.0E-05
          SYMDEN=       F          PURIFY=       F

 INITIAL GUESS ORBITALS GENERATED BY MOSAVED  ROUTINE.

 STATISTICS FOR GENERATION OF SYMMETRY ORBITAL -Q- MATRIX
 NUMBER OF CARTESIAN ATOMIC ORBITALS=        154
 NUMBER OF SPHERICAL CONTAMINANTS DROPPED=     8
 NUMBER OF LINEARLY DEPENDENT MOS DROPPED=     0
 TOTAL NUMBER OF MOS IN VARIATION SPACE=     146
 ...... END OF INITIAL ORBITAL SELECTION ......
 CPU     0: STEP CPU TIME=     0.01 TOTAL CPU TIME=         24.1 (      0.4 MIN)
 TOTAL WALL CLOCK TIME=         24.5 SECONDS, CPU UTILIZATION IS    98.41%

          ---------------------------
                  UHF SCF CALCULATION
          ---------------------------

 FINAL UHF ENERGY IS     -154.6243002807 AFTER   1 ITERATIONS
 ...... END OF UHF CALCULATION ......
 CPU     0: STEP CPU TIME=     0.08 TOTAL CPU TIME=         24.2 (      0.4 MIN)
 TOTAL WALL CLOCK TIME=         24.6 SECONDS, CPU UTILIZATION IS    98.41%

 XEDA STEP ENERGY SUMMATION
 ETOT =       -154.62430028     ENUC =        102.33030452

          ---------------------------------------------
          MONOMER ELECTROSTATIC INTERACTION (ALL BASIS)
          ---------------------------------------------

          -------------
          GUESS OPTIONS
          -------------
          GUESS =MOSAVED           NORB  =       0          NORDER=       0
          MIX   =       F          PRTMO =       F          PUNMO =       F
          TOLZ  = 1.0E-08          TOLE  = 1.0E-05
          SYMDEN=       F          PURIFY=       F

 INITIAL GUESS ORBITALS GENERATED BY MOSAVED  ROUTINE.

 STATISTICS FOR GENERATION OF SYMMETRY ORBITAL -Q- MATRIX
 NUMBER OF CARTESIAN ATOMIC ORBITALS=        154
 NUMBER OF SPHERICAL CONTAMINANTS DROPPED=     8
 NUMBER OF LINEARLY DEPENDENT MOS DROPPED=     0
 TOTAL NUMBER OF MOS IN VARIATION SPACE=     146
 ...... END OF INITIAL ORBITAL SELECTION ......
 CPU     0: STEP CPU TIME=     0.01 TOTAL CPU TIME=         24.2 (      0.4 MIN)
 TOTAL WALL CLOCK TIME=         24.6 SECONDS, CPU UTILIZATION IS    98.41%

          ---------------------------
                  UHF SCF CALCULATION
          ---------------------------

 FINAL UHF ENERGY IS     -155.3153234150 AFTER   1 ITERATIONS
 ...... END OF UHF CALCULATION ......
 CPU     0: STEP CPU TIME=     0.08 TOTAL CPU TIME=         24.3 (      0.4 MIN)
 TOTAL WALL CLOCK TIME=         24.7 SECONDS, CPU UTILIZATION IS    98.41%

          -------------
          GUESS OPTIONS
          -------------
          GUESS =MOSAVED           NORB  =       0          NORDER=       0
          MIX   =       F          PRTMO =       F          PUNMO =       F
          TOLZ  = 1.0E-08          TOLE  = 1.0E-05
          SYMDEN=       F          PURIFY=       F

 INITIAL GUESS ORBITALS GENERATED BY MOSAVED  ROUTINE.

 STATISTICS FOR GENERATION OF SYMMETRY ORBITAL -Q- MATRIX
 NUMBER OF CARTESIAN ATOMIC ORBITALS=        154
 NUMBER OF SPHERICAL CONTAMINANTS DROPPED=     8
 NUMBER OF LINEARLY DEPENDENT MOS DROPPED=     0
 TOTAL NUMBER OF MOS IN VARIATION SPACE=     146
 ...... END OF INITIAL ORBITAL SELECTION ......
 CPU     0: STEP CPU TIME=     0.01 TOTAL CPU TIME=         24.3 (      0.4 MIN)
 TOTAL WALL CLOCK TIME=         24.7 SECONDS, CPU UTILIZATION IS    98.41%

          ---------------------------
                  UHF SCF CALCULATION
          ---------------------------

 DIRECT SCF CALCULATION, SCHWRZ=T   FDIFF=T
 SCHWARZ INEQUALITY OVERHEAD:     11926 INTEGRALS, T=        0.00

 FINAL UHF ENERGY IS     -331.0687741124 AFTER   1 ITERATIONS
 ...... END OF UHF CALCULATION ......
 CPU     0: STEP CPU TIME=     0.27 TOTAL CPU TIME=         24.6 (      0.4 MIN)
 TOTAL WALL CLOCK TIME=         25.0 SECONDS, CPU UTILIZATION IS    98.37%

 XEDA STEP ENERGY SUMMATION
 ETOT =       -155.31532341     ENUC =        102.33030452
 EEXCH=        -22.94969525

          --------------------------------------------------
          MONOMER EXCHANGE-REPULSION INTERACTION (ALL BASIS)
          --------------------------------------------------

          -------------
          GUESS OPTIONS
          -------------
          GUESS =MOSAVED           NORB  =       0          NORDER=       0
          MIX   =       F          PRTMO =       F          PUNMO =       F
          TOLZ  = 1.0E-08          TOLE  = 1.0E-05
          SYMDEN=       F          PURIFY=       F

 INITIAL GUESS ORBITALS GENERATED BY MOSAVED  ROUTINE.

 STATISTICS FOR GENERATION OF SYMMETRY ORBITAL -Q- MATRIX
 NUMBER OF CARTESIAN ATOMIC ORBITALS=        154
 NUMBER OF SPHERICAL CONTAMINANTS DROPPED=     8
 NUMBER OF LINEARLY DEPENDENT MOS DROPPED=     0
 TOTAL NUMBER OF MOS IN VARIATION SPACE=     146
 ...... END OF INITIAL ORBITAL SELECTION ......
 CPU     0: STEP CPU TIME=     0.01 TOTAL CPU TIME=         24.6 (      0.4 MIN)
 TOTAL WALL CLOCK TIME=         25.0 SECONDS, CPU UTILIZATION IS    98.37%

          ---------------------------
                  UHF SCF CALCULATION
          ---------------------------

 FINAL UHF ENERGY IS     -154.6292935495 AFTER   1 ITERATIONS
 ...... END OF UHF CALCULATION ......
 CPU     0: STEP CPU TIME=     0.08 TOTAL CPU TIME=         24.7 (      0.4 MIN)
 TOTAL WALL CLOCK TIME=         25.1 SECONDS, CPU UTILIZATION IS    98.38%

 XEDA STEP ENERGY SUMMATION
 ETOT =       -154.62929355     ENUC =        102.33030452

          --------------------------------
          RESULTS OF INTERACTION ANALYSIS
          --------------------------------

     ENERGY TERMS
     T   ELECTRON KINETIC AND COULOMB POTENTIAL
     X   E-E EXCHANGE COMBINE WITH DIAGNANAL VALUE
     N   NUCLEUS-NUCLEUS REPULSION ENERGY

 --------------
 MONOMER ENERGY
 --------------

 MONOMER    1

                   OWN BASIS           ALL BASIS

 T              -93.92443447        -93.92458224
 X              -11.31227058        -11.31267813
 N               27.85918594         27.85918594
 EC              -0.47438169         -0.47493641
 E              -77.85190079        -77.85301084

 MONOMER    2

                   OWN BASIS           ALL BASIS

 T              -93.92438221        -93.92451559
 X              -11.31226499        -11.31268144
 N               27.85912833         27.85912833
 EC              -0.47438530         -0.47493518
 E              -77.85190417        -77.85300389

 ------------------------------------------------------------
 SUPER MOLECULE ENERGY  USING NON-ANTISYMMETRIC WAVEFUNCTION
 (ELECTROSTATIC ENERGY: T N CHANGE)
 ------------------------------------------------------------

              FROM OWN BASIS      FROM ALL BASIS
 T             -234.69042308       -234.69593269
 X              -22.62453557        -22.62535957
 N              102.33030452        102.33030452
 E             -154.98465412       -154.99098773

 ----------------------------------------------------------------------
 SUPER MOLECULE ENERGY  USING ANTISYMMETRIC NONORTHONORMAL WAVEFUNCTION
 (EXCHANGE ENERGY: ONLY X CHANGES)
 ----------------------------------------------------------------------

              FROM OWN BASIS      FROM ALL BASIS
 T             -234.69042308       -234.69593269
 X              -22.94928507        -22.94969525
 N              102.33030452        102.33030452
 E             -155.30940362       -155.31532341

 -----------------------------------------------------------------------
 SUPER MOLECULE ENERGY  USING ANTISYMMETRIC AND ORTHONORMAL WAVEFUNCTION
 (REPULSION ENERGY: T X CHANGE)
 -----------------------------------------------------------------------

              FROM OWN BASIS      FROM ALL BASIS
 T+X           -256.95460481       -256.95959807
 N              102.33030452        102.33030452
 E             -154.62430028       -154.62929355

 ---------------------------------------------
 SUPER MOLECULE ENERGY  USING SCF WAVEFUNCTION
 (POLARIZATION ENERGY: T X CHANGE)
 ---------------------------------------------
 T+X           -257.24240072
 N              102.33030452
 EC              -0.98656889
 E             -155.89866508


                   *******************************
                   SUMMARY OF INTERACTION ENERGIES
                     XEDA IN XIAMEN UNIVERSITY    
                    - ZHEN TANG AND PEIFENG SU -  
                   *******************************


 -------------
 OWN BASIS SET                                       HARTREE          KCAL/MOL
 -------------
 ELECTROSTATIC ENERGY                  ES=         -0.229616           -144.09
 EXCHANGE ENERGY                       EX=         -0.324749           -203.78
 REPULSION ENERGY                     REP=          0.685103            429.91
 POLARIZATION ENERGY                  POL=         -0.287796           -180.59
 ELECTRON CORRELATION                CORR=         -0.037802            -23.72
 TOTAL INTERACTION ENERGY               E=         -0.194860           -122.28
  

 -------------
 ALL BASIS SET                                       HARTREE          KCAL/MOL
 -------------
 ELECTROSTATIC ENERGY                  ES=         -0.234845           -147.37
 EXCHANGE ENERGY                       EX=         -0.324336           -203.52
 REPULSION ENERGY                     REP=          0.686030            430.49
 POLARIZATION ENERGY                  POL=         -0.282803           -177.46
 ELECTRON CORRELATION                CORR=         -0.036697            -23.03
 TOTAL INTERACTION ENERGY               E=         -0.192650           -120.89
  

                     ***************************
                     END OF INTERACTION ANALYSIS
                     ***************************

              1301896  WORDS OF DYNAMIC MEMORY USED
 EXECUTION OF GAMESS TERMINATED NORMALLY 14:31:52 25-DEC-2023    
 DDI: 263640 bytes (0.3 MB / 0 MWords) used by master data server.

 ----------------------------------------
 CPU timing information for all processes
 ========================================
 0: 24.41 + 0.639 = 24.680
 1: 23.860 + 0.506 = 24.367
 2: 23.821 + 0.545 = 24.366
 3: 23.728 + 0.511 = 24.240
 4: 23.836 + 0.588 = 24.425
 5: 23.796 + 0.511 = 24.308
 6: 23.779 + 0.563 = 24.342
 7: 23.736 + 0.490 = 24.226
 8: 23.811 + 0.591 = 24.402
 9: 23.821 + 0.435 = 24.257
 10: 23.733 + 0.578 = 24.312
 11: 23.759 + 0.525 = 24.284
 12: 23.825 + 0.555 = 24.381
 13: 23.751 + 0.510 = 24.262
 14: 23.732 + 0.545 = 24.277
 15: 23.732 + 0.535 = 24.267
 ----------------------------------------
 ddikick.x: exited gracefully.
----- accounting info -----
Files used on the master node w013 were:
-rw-r--r-- 1 xacs0647 10000  2703863 Dec 25 14:31 /job_dir/24_1685748/24.dat
-rw-r--r-- 1 xacs0647 10000      243 Dec 25 14:31 /job_dir/24_1685748/24.err
-rw-r--r-- 1 xacs0647 10000      837 Dec 25 14:31 /job_dir/24_1685748/24.F05
-rw-r--r-- 1 xacs0647 10000 55444928 Dec 25 14:31 /job_dir/24_1685748/24.F08
-rw-r--r-- 1 xacs0647 10000 49324384 Dec 25 14:31 /job_dir/24_1685748/24.F08.001
-rw-r--r-- 1 xacs0647 10000 47524224 Dec 25 14:31 /job_dir/24_1685748/24.F08.002
-rw-r--r-- 1 xacs0647 10000 46264112 Dec 25 14:31 /job_dir/24_1685748/24.F08.003
-rw-r--r-- 1 xacs0647 10000 50224464 Dec 25 14:31 /job_dir/24_1685748/24.F08.004
-rw-r--r-- 1 xacs0647 10000 46804160 Dec 25 14:31 /job_dir/24_1685748/24.F08.005
-rw-r--r-- 1 xacs0647 10000 46804160 Dec 25 14:31 /job_dir/24_1685748/24.F08.006
-rw-r--r-- 1 xacs0647 10000 47344208 Dec 25 14:31 /job_dir/24_1685748/24.F08.007
-rw-r--r-- 1 xacs0647 10000 51124544 Dec 25 14:31 /job_dir/24_1685748/24.F08.008
-rw-r--r-- 1 xacs0647 10000 50404480 Dec 25 14:31 /job_dir/24_1685748/24.F08.009
-rw-r--r-- 1 xacs0647 10000 51484576 Dec 25 14:31 /job_dir/24_1685748/24.F08.010
-rw-r--r-- 1 xacs0647 10000 46084096 Dec 25 14:31 /job_dir/24_1685748/24.F08.011
-rw-r--r-- 1 xacs0647 10000 52024624 Dec 25 14:31 /job_dir/24_1685748/24.F08.012
-rw-r--r-- 1 xacs0647 10000 49324384 Dec 25 14:31 /job_dir/24_1685748/24.F08.013
-rw-r--r-- 1 xacs0647 10000 50224464 Dec 25 14:31 /job_dir/24_1685748/24.F08.014
-rw-r--r-- 1 xacs0647 10000 52744688 Dec 25 14:31 /job_dir/24_1685748/24.F08.015
-rw-r--r-- 1 xacs0647 10000  5758720 Dec 25 14:31 /job_dir/24_1685748/24.F10
-rw-r--r-- 1 xacs0647 10000      837 Dec 25 14:31 /job_dir/24_1685748/24.inp
-rw-r--r-- 1 xacs0647 10000  2403470 Dec 25 14:31 /job_dir/24_1685748/24.out
Mon Dec 25 14:31:55 CST 2023
0.096u 0.052s 0:28.25 0.4%	0+0k 0+32io 0pf+0w
