----- GAMESS execution script 'rungms' -----
This job is running on host w012
under operating system Linux at Mon Dec 25 14:31:27 CST 2023
Available scratch disk space (Kbyte units) at beginning of the job is
Filesystem              1K-blocks    Used Available Use% Mounted on
/dev/mapper/system-root 932514944 2762820 929752124   1% /
GAMESS temporary binary files will be written to /job_dir/25_1685749
GAMESS supplementary output files will be written to /job_dir/25_1685749
Copying input file ./25.inp to your run's scratch directory...
 
Assuming a single but multicore node.
 

 Distributed Data Interface kickoff program.
 Initiating 16 compute processes on 1 nodes to run the following command:
 /share/apps/xeda-apps/xeda-td/gamess.00.x 25 

          *******************************************************
          *                                                     *
          *          GAMESS VERSION = 30 SEP 2020 (R2)          *
          *                                                     *
          *              doi.org/10.1063/5.0005188              *
          *                                                     *
          **************** 64 BIT LINUX VERSION *****************

  GAMESS HAS BEEN MADE POSSIBLE WITH IMPORTANT CONTRIBUTIONS FROM
  THE FOLLOWING INDIVIDUALS (IN ALPHABETICAL ORDER):

     IVANA ADAMOVIC, CHRISTINE AIKENS, TOMOKO AKAMA,
     YURI ALEXEEV, YURIKO AOKI, POOJA ARORA, TOSHIO ASADA,
     ANDREY ASADCHEV, KIM K. BALDRIDGE, PRADIPTA BANDYOPADHYAY,
     MARIA BARYSZ, ROB BELL, JONATHAN BENTZ, COLLEEN BERTONI,
     JERRY A. BOATZ, BRETT BODE, KURT BRORSEN, KURT R. BRORSEN,
     LAIMUTIS BYTAUTAS, CALEB CARLIN, LAURA CARRINGTON,
     GALINA CHABAN, BENOIT CHAMPAGNE, WEI CHEN, MAHITO CHIBA,
     DAN CHIPMAN, CHEOL HO CHOI, TANNER CULPITT,
     DIPAYAN DATTA, PAUL DAY, ALBERT DEFUSCO,
     NUWAN DESILVA, J. EMILIANO DEUSTUA,
     TIM DUDLEY, MICHEL DUPUIS, STEVEN T. ELBERT,
     DMITRI FEDOROV, ALEX FINDLATER, GRAHAM FLETCHER,
     MARK FREITAG, CHRISTIAN FRIEDL, DAVID GARMER,
     IGOR S. GERASIMOV, KURT GLAESEMANN, MARK S. GORDON,
     JEFFREY GOUR, FENG LONG GU, EMILIE B. GUIDEZ,
     ANASTASIA GUNINA, SHARON HAMMES-SCHIFFER, MASATAKE HARUTA,
     KIMIHIKO HIRAO, YASUHIRO IKABATA, TZVETELIN IORDANOV,
     STEPHAN IRLE, KAZUYA ISHIMURA, JOE IVANIC, FRANK JENSEN,
     JAN H. JENSEN, VISVALDAS KAIRYS, MUNEAKI KAMIYA,
     MICHIO KATOUDA, NAOAKI KAWAKAMI, DAN KEMP, BERNARD KIRTMAN,
     KAZUO KITAURA, MARIUSZ KLOBUKOWSKI, MASATO KOBAYASHI,
     PRAKASHAN KORAMBATH, JACEK KORCHOWIEC, SHIRO KOSEKI,
     KAROL KOWALSKI, JIMMY KROMANN, STANISLAW KUCHARSKI,
     HENRY KURTZ, SAROM SOK LEANG, HUI LI, SHUHUA LI, WEI LI,
     JESSE LUTZ, ALEKSANDR O. LYKHIN, MARCIN MAKOWSKI,
     JOANI MATO, NIKITA MATSUNAGA, BENEDETTA MENNUCCI,
     GRANT MERRILL, NORIYUKI MINEZAWA, VLADIMIR MIRONOV,
     EISAKU MIYOSHI, JOHN A. MONTGOMERY JR., HIROTOSHI MORI,
     JONATHAN MULLIN, MONIKA MUSIAL, SHIGERU NAGASE,
     TAKESHI NAGATA, HIROMI NAKAI, TAKAHITO NAKAJIMA,
     YUYA NAKAJIMA, HARUYUKI NAKANO, HIROYA NAKATA, SEAN NEDD,
     HEATHER NETZLOFF, KIET A. NGUYEN, YOSHIO NISHIMOTO,
     BOSILJKA NJEGIC, RYAN OLSON, MIKE PAK, ROBERTO PEVERATI,
     BUU PHAM, PIOTR PIECUCH, ANNA POMOGAEVA, DAVID POOLE,
     SPENCER PRUITT, OLIVIER QUINET, LUKE ROSKOP,
     KLAUS RUEDENBERG, ANDREW SAND, TOSAPORN SATTASATHUCHANA,
     NOZOMI SAWADA, MICHAEL W. SCHMIDT, PATRICK E. SCHNEIDER,
     JUNJI SEINO, PRACHI SHARMA, JUN SHEN, JIM SHOEMAKER,
     YINAN SHU, DEJUN SI, JONATHAN SKONE, LYUDMILA SLIPCHENKO,
     TONY SMITH, JIE SONG, MARK SPACKMAN, CASPER STEINMANN,
     WALT STEVENS, PEIFENG SU, SHUJUN SU, CHET SWALINA,
     TETSUYA TAKETSUGU, ZHEN TAO, NANDUN THELLAMUREGE
     SEIKEN TOKURA, JACOPO TOMASI, TSUGUKI TOUMA, TAKAO TSUNEDA,
     HIROAKI UMEDA, JORGE LUIS GALVEZ VALLEJO, YALI WANG,
     SIMON WEBB, AARON WEST, THERESA L. WINDUS, MARTA WLOCH,
     PENG XU, KIYOSHI YAGI, SUSUMU YANAGISAWA, YANG YANG,
     SOOHAENG YOO, TAKESHI YOSHIKAWA, FEDERICO ZAHARIEV,
     TOBY ZENG

  WHO ARE SUPPORTED BY THEIR INSTITUTION/UNIVERSITY/COMPANY/GROUP
  (IN ALPHABETICAL ORDER):

     EP ANALYTICS, FACULTES UNIVERSITAIRES NOTRE-DAME DE LA PAIX,
     INSTITUTE FOR MOLECULAR SCIENCE, IOWA STATE UNIVERSITY,
     JACKSON STATE UNIVERSITY, JOHANNES KEPLER UNIVERSITY LINZ,
     KYUSHU UNIVERSITY, MICHIGAN STATE UNIVERSITY,
     MIE UNIVERSITY, MOSCOW STATE UNIVERSITY,
     N. COPERNICUS UNIVERSITY, NAGOYA UNIVERSITY,
     NANJING UNIVERSITY, NAT. INST. OF ADVANCED INDUSTRIAL
     SCIENCE AND TECHNOLOGY, NATIONAL INST. OF STANDARDS AND
     TECHNOLOGY, NESMEYANOV INSTITUTE OF ORGANOELEMENT COMPOUNDS
     OF RUSSIAN ACADEMY OF SCIENCES, OSAKA PREFECTURE UNIVERSITY,
     PENNSYLVANIA STATE UNIVERSITY, TOKYO INSTITUTE OF TECHNOLOGY,
     UNIVERSITY OF AARHUS, UNIVERSITY OF ALBERTA,
     UNIVERSITY OF CALIFORNIA AT SANTA BARBARA,
     UNIVERSITY OF COPENHAGEN, UNIVERSITY OF IOWA,
     UNIVERSITY OF MEMPHIS, UNIVERSITY OF MINNESOTA,
     UNIVERSITY OF NEBRASKA, UNIVERSITY OF NEW ENGLAND,
     UNIVERSITY OF NOTRE DAME, UNIVERSITY OF PISA,
     UNIVERSITY OF SILESIA, UNIVERSITY OF TOKYO,
     UNIVERSITY OF ZURICH, WASEDA UNIVERSITY, YALE UNIVERSITY

  GAMESS SOFTWARE MANAGEMENT TEAM FOR THIS RELEASE:
     MARK S. GORDON (TEAM LEAD),
     BRETT BODE (SENIOR ADVISOR),
     GIUSEPPE BARCA,
     COLLEEN BERTONI,
     KRISTOPHER KEIPERT (ADVISOR),
     SAROM S. LEANG (DEVELOPMENT LEAD),
     BUU PHAM,
     JORGE LUIS GALVEZ VALLEJO (WEBSITE ADMINISTRATOR),
     PENG XU


 PARALLEL VERSION RUNNING ON       16 PROCESSORS IN        1 NODES.

 EXECUTION OF GAMESS BEGUN 14:31:28 25-DEC-2023    

            ECHO OF THE FIRST FEW INPUT CARDS -
 INPUT CARD> $CONTRL SCFTYP=UHF RUNTYP=EDA dfttyp=B3LYP ispher=1 icharg=0 mult=1 $END       
 INPUT CARD> $SYSTEM  mwords=150 memddi=150 $END                                            
 INPUT CARD> $BASIS gbasis=accd $END                                                        
 INPUT CARD> $LMOEDA MATOM(1)=5 5 MCHARG(1)=0 0 MMULT(1)=2 -2 edatyp=gks $end               
 INPUT CARD> $scf DIIS=.TRUE. ETHRSH=2.0 SWDIIS=0.005 $end                                  
 INPUT CARD> $data                                                                          
 INPUT CARD> EDA calculation with XEDA 1.0                                                  
 INPUT CARD> c1                                                                             
 INPUT CARD>C   6   -0.1015786723    0.6248740858   -1.7573004919                           
 INPUT CARD>C   6   -0.1015786723    0.6248740858   -0.3995133479                           
 INPUT CARD>H   1   -0.0411977993    1.5779843488    0.1414279442                           
 INPUT CARD>H   1   -0.1468999811   -0.3043623372   -2.3341085317                           
 INPUT CARD>H   1   -0.0658434778    1.5503605201   -2.3358760545                           
 INPUT CARD>C   6   -0.1015786723   -0.6049371594    0.4292136880                           
 INPUT CARD>C   6    0.2835629341   -0.6427410149    1.7306889438                           
 INPUT CARD>H   1    0.5821698164    0.2616261781    2.2703177145                           
 INPUT CARD>H   1    0.3043521750   -1.5737040626    2.3011482802                           
 INPUT CARD>H   1   -0.3804764620   -1.5365517506   -0.0796870708                           
 INPUT CARD> $end                                                                           
  150000000 WORDS OF MEMORY AVAILABLE

     BASIS OPTIONS
     -------------
     GBASIS=ACCD         IGAUSS=       0      POLAR=NONE    
     NDFUNC=       0     NFFUNC=       0     DIFFSP=       F
     NPFUNC=       0      DIFFS=       F     BASNAM=        


     RUN TITLE
     ---------
  EDA calculation with XEDA 1.0                                                  

 THE POINT GROUP OF THE MOLECULE IS C1      
 THE ORDER OF THE PRINCIPAL AXIS IS     0

 ATOM      ATOMIC                      COORDINATES (BOHR)
           CHARGE         X                   Y                   Z
 C           6.0    -0.1919558568        1.1808407990       -3.3208164078
 C           6.0    -0.1919558568        1.1808407990       -0.7549707560
 H           1.0    -0.0778525520        2.9819580321        0.2672600615
 H           1.0    -0.2776007119       -0.5751614183       -4.4108255505
 H           1.0    -0.1244261311        2.9297565652       -4.4141656843
 C           6.0    -0.1919558568       -1.1431654711        0.8110962605
 C           6.0     0.5358562457       -1.2146043992        3.2705278738
 H           1.0     1.1001414313        0.4944017878        4.2902783855
 H           1.0     0.5751422145       -2.9738694641        4.3485397067
 H           1.0    -0.7189962580       -2.9036617746       -0.1505867286

          INTERNUCLEAR DISTANCES (ANGS.)
          ------------------------------

                1 C          2 C          3 H          4 H          5 H     

   1 C       0.0000000    1.3577871 *  2.1253787 *  1.0946423 *  1.0920402 *
   2 C       1.3577871 *  0.0000000    1.0975803 *  2.1466702 *  2.1464628 *
   3 H       2.1253787 *  1.0975803 *  0.0000000    3.1117010    2.4775806 *
   4 H       1.0946423 *  2.1466702 *  3.1117010    0.0000000    1.8564941 *
   5 H       1.0920402 *  2.1464628 *  2.4775806 *  1.8564941 *  0.0000000  
   6 C       2.5086411 *  1.4829782 *  2.2026377 *  2.7799908 *  3.5060386  
   7 C       3.7311195    2.5085741 *  2.7500620 *  4.1015091    4.6334361  
   8 H       4.1013619    2.7798307 *  2.5794491 *  4.6960224    4.8267772  
   9 H       4.6335227    3.5060090    3.8362660    4.8270553    5.6034649  
  10 H       2.7502604 *  2.2026880 *  3.1407542    2.5797800 *  3.8364580  

                6 C          7 C          8 H          9 H         10 H     

   1 C       2.5086411 *  3.7311195    4.1013619    4.6335227    2.7502604 *
   2 C       1.4829782 *  2.5085741 *  2.7798307 *  3.5060090    2.2026880 *
   3 H       2.2026377 *  2.7500620 *  2.5794491 *  3.8362660    3.1407542  
   4 H       2.7799908 *  4.1015091    4.6960224    4.8270553    2.5797800 *
   5 H       3.5060386    4.6334361    4.8267772    5.6034649    3.8364580  
   6 C       0.0000000    1.3577927 *  2.1466504 *  2.1464921 *  1.0975745 *
   7 C       1.3577927 *  0.0000000    1.0946439 *  1.0920386 *  2.1253958 *
   8 H       2.1466504 *  1.0946439 *  0.0000000    1.8564941 *  3.1116964  
   9 H       2.1464921 *  1.0920386 *  1.8564941 *  0.0000000    2.4776496 *
  10 H       1.0975745 *  2.1253958 *  3.1116964    2.4776496 *  0.0000000  

  * ... LESS THAN  3.000


     ATOMIC BASIS SET
     ----------------
 THE CONTRACTED PRIMITIVE FUNCTIONS HAVE BEEN UNNORMALIZED
 THE CONTRACTED BASIS FUNCTIONS ARE NOW NORMALIZED TO UNITY

  SHELL TYPE  PRIMITIVE        EXPONENT          CONTRACTION COEFFICIENT(S)

 C         

      1   S       1          6665.0000000    0.000691583963
      1   S       2          1000.0000000    0.005325796153
      1   S       3           228.0000000    0.027060721042
      1   S       4            64.7100000    0.101656846141
      1   S       5            21.0600000    0.274574823617
      1   S       6             7.4950000    0.448294318924
      1   S       7             2.7970000    0.284902610715
      1   S       8             0.5215000    0.015194859206

      2   S       9          6665.0000000   -0.000293269653
      2   S      10          1000.0000000   -0.002318035474
      2   S      11           228.0000000   -0.011499786039
      2   S      12            64.7100000   -0.046826727010
      2   S      13            21.0600000   -0.128466168750
      2   S      14             7.4950000   -0.301266272463
      2   S      15             2.7970000   -0.255630702330
      2   S      16             0.5215000    1.093793361012

      3   S      17             0.1596000    1.000000000000

      4   P      18             9.4390000    0.056979251590
      4   P      19             2.0020000    0.313207211501
      4   P      20             0.5456000    0.760376741738

      5   P      21             0.1517000    1.000000000000

      6   D      22             0.5500000    1.000000000000

      7   S      23             0.0469000    1.000000000000

      8   P      24             0.0404100    1.000000000000

      9   D      25             0.1510000    1.000000000000

 C         

     10   S      26          6665.0000000    0.000691583963
     10   S      27          1000.0000000    0.005325796153
     10   S      28           228.0000000    0.027060721042
     10   S      29            64.7100000    0.101656846141
     10   S      30            21.0600000    0.274574823617
     10   S      31             7.4950000    0.448294318924
     10   S      32             2.7970000    0.284902610715
     10   S      33             0.5215000    0.015194859206

     11   S      34          6665.0000000   -0.000293269653
     11   S      35          1000.0000000   -0.002318035474
     11   S      36           228.0000000   -0.011499786039
     11   S      37            64.7100000   -0.046826727010
     11   S      38            21.0600000   -0.128466168750
     11   S      39             7.4950000   -0.301266272463
     11   S      40             2.7970000   -0.255630702330
     11   S      41             0.5215000    1.093793361012

     12   S      42             0.1596000    1.000000000000

     13   P      43             9.4390000    0.056979251590
     13   P      44             2.0020000    0.313207211501
     13   P      45             0.5456000    0.760376741738

     14   P      46             0.1517000    1.000000000000

     15   D      47             0.5500000    1.000000000000

     16   S      48             0.0469000    1.000000000000

     17   P      49             0.0404100    1.000000000000

     18   D      50             0.1510000    1.000000000000

 H         

     19   S      51            13.0100000    0.033498726390
     19   S      52             1.9620000    0.234800801174
     19   S      53             0.4446000    0.813682957883

     20   S      54             0.1220000    1.000000000000

     21   P      55             0.7270000    1.000000000000

     22   S      56             0.0297400    1.000000000000

     23   P      57             0.1410000    1.000000000000

 H         

     24   S      58            13.0100000    0.033498726390
     24   S      59             1.9620000    0.234800801174
     24   S      60             0.4446000    0.813682957883

     25   S      61             0.1220000    1.000000000000

     26   P      62             0.7270000    1.000000000000

     27   S      63             0.0297400    1.000000000000

     28   P      64             0.1410000    1.000000000000

 H         

     29   S      65            13.0100000    0.033498726390
     29   S      66             1.9620000    0.234800801174
     29   S      67             0.4446000    0.813682957883

     30   S      68             0.1220000    1.000000000000

     31   P      69             0.7270000    1.000000000000

     32   S      70             0.0297400    1.000000000000

     33   P      71             0.1410000    1.000000000000

 C         

     34   S      72          6665.0000000    0.000691583963
     34   S      73          1000.0000000    0.005325796153
     34   S      74           228.0000000    0.027060721042
     34   S      75            64.7100000    0.101656846141
     34   S      76            21.0600000    0.274574823617
     34   S      77             7.4950000    0.448294318924
     34   S      78             2.7970000    0.284902610715
     34   S      79             0.5215000    0.015194859206

     35   S      80          6665.0000000   -0.000293269653
     35   S      81          1000.0000000   -0.002318035474
     35   S      82           228.0000000   -0.011499786039
     35   S      83            64.7100000   -0.046826727010
     35   S      84            21.0600000   -0.128466168750
     35   S      85             7.4950000   -0.301266272463
     35   S      86             2.7970000   -0.255630702330
     35   S      87             0.5215000    1.093793361012

     36   S      88             0.1596000    1.000000000000

     37   P      89             9.4390000    0.056979251590
     37   P      90             2.0020000    0.313207211501
     37   P      91             0.5456000    0.760376741738

     38   P      92             0.1517000    1.000000000000

     39   D      93             0.5500000    1.000000000000

     40   S      94             0.0469000    1.000000000000

     41   P      95             0.0404100    1.000000000000

     42   D      96             0.1510000    1.000000000000

 C         

     43   S      97          6665.0000000    0.000691583963
     43   S      98          1000.0000000    0.005325796153
     43   S      99           228.0000000    0.027060721042
     43   S     100            64.7100000    0.101656846141
     43   S     101            21.0600000    0.274574823617
     43   S     102             7.4950000    0.448294318924
     43   S     103             2.7970000    0.284902610715
     43   S     104             0.5215000    0.015194859206

     44   S     105          6665.0000000   -0.000293269653
     44   S     106          1000.0000000   -0.002318035474
     44   S     107           228.0000000   -0.011499786039
     44   S     108            64.7100000   -0.046826727010
     44   S     109            21.0600000   -0.128466168750
     44   S     110             7.4950000   -0.301266272463
     44   S     111             2.7970000   -0.255630702330
     44   S     112             0.5215000    1.093793361012

     45   S     113             0.1596000    1.000000000000

     46   P     114             9.4390000    0.056979251590
     46   P     115             2.0020000    0.313207211501
     46   P     116             0.5456000    0.760376741738

     47   P     117             0.1517000    1.000000000000

     48   D     118             0.5500000    1.000000000000

     49   S     119             0.0469000    1.000000000000

     50   P     120             0.0404100    1.000000000000

     51   D     121             0.1510000    1.000000000000

 H         

     52   S     122            13.0100000    0.033498726390
     52   S     123             1.9620000    0.234800801174
     52   S     124             0.4446000    0.813682957883

     53   S     125             0.1220000    1.000000000000

     54   P     126             0.7270000    1.000000000000

     55   S     127             0.0297400    1.000000000000

     56   P     128             0.1410000    1.000000000000

 H         

     57   S     129            13.0100000    0.033498726390
     57   S     130             1.9620000    0.234800801174
     57   S     131             0.4446000    0.813682957883

     58   S     132             0.1220000    1.000000000000

     59   P     133             0.7270000    1.000000000000

     60   S     134             0.0297400    1.000000000000

     61   P     135             0.1410000    1.000000000000

 H         

     62   S     136            13.0100000    0.033498726390
     62   S     137             1.9620000    0.234800801174
     62   S     138             0.4446000    0.813682957883

     63   S     139             0.1220000    1.000000000000

     64   P     140             0.7270000    1.000000000000

     65   S     141             0.0297400    1.000000000000

     66   P     142             0.1410000    1.000000000000

 TOTAL NUMBER OF BASIS SET SHELLS             =   66
 NUMBER OF CARTESIAN GAUSSIAN BASIS FUNCTIONS =  154
 NOTE: THIS RUN WILL RESTRICT THE MO VARIATION SPACE TO SPHERICAL HARMONICS.
 THE NUMBER OF ORBITALS KEPT IN THE VARIATIONAL SPACE WILL BE PRINTED LATER.
 NUMBER OF ELECTRONS                          =   30
 CHARGE OF MOLECULE                           =    0
 SPIN MULTIPLICITY                            =    1
 NUMBER OF OCCUPIED ORBITALS (ALPHA)          =   15
 NUMBER OF OCCUPIED ORBITALS (BETA )          =   15
 TOTAL NUMBER OF ATOMS                        =   10
 THE NUCLEAR REPULSION ENERGY IS      102.3311870866

 SELECTED MURRAY-HANDY-LAMING RADIAL GRID

 LEGACY BECKE'S FUZZY CELL METHOD

 SELECTED ORIGINAL BECKE'S PARTITION FUNCTION

     LEBEDEV GRID-BASED DFT OPTIONS
     ------------------------------
     DFTTYP=B3LYP   
     NRAD  =      96     NLEB  =     302
     NRAD0 =      24     NLEB0 =     110
     SWOFF =    5.00E-03 (PURE SCF -> DFT)
     SWITCH=    3.00E-04 (COARSE -> TIGHT GRID)
     THRESH=    0.00E+00 GTHRE=    1.00E+00

 GRIMME'S EMPIRICAL DISPERSION CORRECTION= F

     $CONTRL OPTIONS
     ---------------
 SCFTYP=UHF          RUNTYP=LMOEDA       EXETYP=RUN     
 MPLEVL=       0     CITYP =NONE         CCTYP =NONE         VBTYP =NONE    
 DFTTYP=B3LYP        TDDFT =NONE    
 MULT  =       1     ICHARG=       0     NZVAR =       0     COORD =UNIQUE  
 PP    =NONE         RELWFN=NONE         LOCAL =NONE         NUMGRD=       F
 ISPHER=       1     NOSYM =       0     MAXIT =      30     UNITS =ANGS    
 PLTORB=       F     MOLPLT=       F     AIMPAC=       F     FRIEND=        
 NPRINT=       7     IREST =       0     GEOM  =INPUT   
 NORMF =       0     NORMP =       0     ITOL  =      20     ICUT  =       9
 INTTYP=BEST         GRDTYP=BEST         QMTTOL= 1.0E-06

     $SYSTEM OPTIONS
     ---------------
  REPLICATED MEMORY=   150000000 WORDS (ON EVERY NODE).
 DISTRIBUTED MEMDDI=         150 MILLION WORDS IN AGGREGATE,
 MEMDDI DISTRIBUTED OVER  16 PROCESSORS IS     9375000 WORDS/PROCESSOR.
 TOTAL MEMORY REQUESTED ON EACH PROCESSOR=   159375000 WORDS.
 TIMLIM=      525600.00 MINUTES, OR     365.0 DAYS.
 PARALL= T  BALTYP=  DLB     KDIAG=    0  COREFL= F
 MXSEQ2=     300 MXSEQ3=     150  mem10=         0  mem22=         0

 Using Gaussians for PCM contribution to MEP, params: 0.10000E+01 0.10000E-07

          ----------------
          PROPERTIES INPUT
          ----------------

     MOMENTS            FIELD           POTENTIAL          DENSITY
 IEMOM =       1   IEFLD =       0   IEPOT =       0   IEDEN =       0
 WHERE =COMASS     WHERE =NUCLEI     WHERE =NUCLEI     WHERE =NUCLEI  
 OUTPUT=BOTH       OUTPUT=BOTH       OUTPUT=BOTH       OUTPUT=BOTH    
 IEMINT=       0   IEFINT=       0                     IEDINT=       0
                                                       MORB  =       0
          EXTRAPOLATION IN EFFECT
          DIIS IN EFFECT
          DIIS or SOSCF will be reset if energy rises
 ORBITAL PRINTING OPTION: NPREO=     1   154     2     1

     -------------------------------
     INTEGRAL TRANSFORMATION OPTIONS
     -------------------------------
     NWORD  =            0
     CUTOFF = 1.0E-09     MPTRAN =       0
     DIRTRF =       F     AOINTS =DUP     

          -----------------------------
          LOCALIZATION INPUT PARAMETERS
          -----------------------------
           LOCAL=RUEDNBRG      NOUTA=       0
          PRTLOC=       F      NOUTB=       0
          MAXLOC=     250     CVGLOC=1.00E-06
           FCORE=       F     SYMLOC=       F
          MOIDON=       F     EDCOMP=       F
          DIPDCM=       F      NPROT=       0
          QADDCM=       F     DEPRNT=       F
          POLNUM=       F     ORIENT=       F
          POLDYN=       F      VMTOL=1.50E-01
          NPRDTL=       2     IBOYAL=       1

          ----------------------
          INTEGRAL INPUT OPTIONS
          ----------------------
 NOPK  =       1 NORDER=       0 SCHWRZ=       T

     ------------------------------------------
     THE POINT GROUP IS C1 , NAXIS= 0, ORDER= 1
     ------------------------------------------

 -- VARIATIONAL SPACE WILL BE RESTRICTED TO PURE SPHERICAL HARMONICS ONLY --
 AFTER EXCLUDING CONTAMINANT COMBINATIONS FROM THE CARTESIAN GAUSSIAN BASIS
 SET, THE NUMBER OF SPHERICAL HARMONICS KEPT IN THE VARIATION SPACE IS  146

     DIMENSIONS OF THE SYMMETRY SUBSPACES ARE
 A   =  146

 ..... DONE SETTING UP THE RUN .....
 CPU     0: STEP CPU TIME=     0.03 TOTAL CPU TIME=          0.0 (      0.0 MIN)
 TOTAL WALL CLOCK TIME=          0.0 SECONDS, CPU UTILIZATION IS    81.28%

          --------------
          GKSEDA OPTIONS
          --------------
          NMOL  =       2          EDATYP=GKS     
          SUPBAS=       T          RDVECM=       F          ITRTN =       T

 *******************
 GKSEDA IS BEGINNING
 *******************

 NMOL =  2

 MONOMER     ATOM   CHARGE ELECTRON MULTIPLE
 -------------------------------------------
       1        5        0       15        2
       2        5        0       15       -2
 -------------------------------------------

 SAVING MOL INFO REQUIRES    598670 WORDS OF MEMORY.

          ********************
          1 ELECTRON INTEGRALS
          ********************
 ...... END OF ONE-ELECTRON INTEGRALS ......
 CPU     0: STEP CPU TIME=     0.01 TOTAL CPU TIME=          0.0 (      0.0 MIN)
 TOTAL WALL CLOCK TIME=          0.0 SECONDS, CPU UTILIZATION IS    83.35%

          -------------
          GUESS OPTIONS
          -------------
          GUESS =HUCKEL            NORB  =       0          NORDER=       0
          MIX   =       F          PRTMO =       F          PUNMO =       F
          TOLZ  = 1.0E-08          TOLE  = 1.0E-05
          SYMDEN=       F          PURIFY=       F

 INITIAL GUESS ORBITALS GENERATED BY HUCKEL   ROUTINE.
 HUCKEL GUESS REQUIRES    180842 WORDS.

 STATISTICS FOR GENERATION OF SYMMETRY ORBITAL -Q- MATRIX
 NUMBER OF CARTESIAN ATOMIC ORBITALS=        154
 NUMBER OF SPHERICAL CONTAMINANTS DROPPED=     8
 NUMBER OF LINEARLY DEPENDENT MOS DROPPED=     0
 TOTAL NUMBER OF MOS IN VARIATION SPACE=     146

 SYMMETRIES FOR INITIAL GUESS ORBITALS FOLLOW.  ALPHA SET(S).
    15 ORBITALS ARE OCCUPIED (    4 CORE ORBITALS).
     5=A        6=A        7=A        8=A        9=A       10=A       11=A   
    12=A       13=A       14=A       15=A       16=A       17=A       18=A   
    19=A       20=A       21=A       22=A       23=A       24=A       25=A   

 SYMMETRIES FOR INITIAL GUESS ORBITALS FOLLOW.   BETA SET(S).
    15 ORBITALS ARE OCCUPIED (    4 CORE ORBITALS).
     5=A        6=A        7=A        8=A        9=A       10=A       11=A   
    12=A       13=A       14=A       15=A       16=A       17=A       18=A   
    19=A       20=A       21=A       22=A       23=A       24=A       25=A   
 ...... END OF INITIAL ORBITAL SELECTION ......
 CPU     0: STEP CPU TIME=     0.01 TOTAL CPU TIME=          0.1 (      0.0 MIN)
 TOTAL WALL CLOCK TIME=          0.1 SECONDS, CPU UTILIZATION IS    87.29%

          -------------------------
          MONOMER  1 WITH OWN BASIS
          -------------------------

     ------------------------------------------
     THE POINT GROUP IS C1 , NAXIS= 0, ORDER= 1
     ------------------------------------------

 -- VARIATIONAL SPACE WILL BE RESTRICTED TO PURE SPHERICAL HARMONICS ONLY --
 AFTER EXCLUDING CONTAMINANT COMBINATIONS FROM THE CARTESIAN GAUSSIAN BASIS
 SET, THE NUMBER OF SPHERICAL HARMONICS KEPT IN THE VARIATION SPACE IS   73

     DIMENSIONS OF THE SYMMETRY SUBSPACES ARE
 A   =   73

          ********************
          1 ELECTRON INTEGRALS
          ********************
 ...... END OF ONE-ELECTRON INTEGRALS ......
 CPU     0: STEP CPU TIME=     0.01 TOTAL CPU TIME=          0.1 (      0.0 MIN)
 TOTAL WALL CLOCK TIME=          0.1 SECONDS, CPU UTILIZATION IS    88.14%

          -------------
          GUESS OPTIONS
          -------------
          GUESS =HUCKEL            NORB  =       0          NORDER=       0
          MIX   =       F          PRTMO =       F          PUNMO =       F
          TOLZ  = 1.0E-08          TOLE  = 1.0E-05
          SYMDEN=       F          PURIFY=       F

 INITIAL GUESS ORBITALS GENERATED BY HUCKEL   ROUTINE.
 HUCKEL GUESS REQUIRES     47410 WORDS.

 STATISTICS FOR GENERATION OF SYMMETRY ORBITAL -Q- MATRIX
 NUMBER OF CARTESIAN ATOMIC ORBITALS=         77
 NUMBER OF SPHERICAL CONTAMINANTS DROPPED=     4
 NUMBER OF LINEARLY DEPENDENT MOS DROPPED=     0
 TOTAL NUMBER OF MOS IN VARIATION SPACE=      73

 SYMMETRIES FOR INITIAL GUESS ORBITALS FOLLOW.  ALPHA SET(S).
     8 ORBITALS ARE OCCUPIED (    2 CORE ORBITALS).
     3=A        4=A        5=A        6=A        7=A        8=A        9=A   
    10=A       11=A       12=A       13=A       14=A       15=A       16=A   
    17=A       18=A   

 SYMMETRIES FOR INITIAL GUESS ORBITALS FOLLOW.   BETA SET(S).
     7 ORBITALS ARE OCCUPIED (    2 CORE ORBITALS).
     3=A        4=A        5=A        6=A        7=A        8=A        9=A   
    10=A       11=A       12=A       13=A       14=A       15=A       16=A   
    17=A   
 ...... END OF INITIAL ORBITAL SELECTION ......
 CPU     0: STEP CPU TIME=     0.00 TOTAL CPU TIME=          0.1 (      0.0 MIN)
 TOTAL WALL CLOCK TIME=          0.1 SECONDS, CPU UTILIZATION IS    88.64%

                    ----------------------
                    AO INTEGRAL TECHNOLOGY
                    ----------------------
     S,P,L SHELL ROTATED AXIS INTEGRALS, REPROGRAMMED BY
        KAZUYA ISHIMURA (IMS) AND JOSE SIERRA (SYNSTAR).
     S,P,D,L SHELL ROTATED AXIS INTEGRALS PROGRAMMED BY
        KAZUYA ISHIMURA (INSTITUTE FOR MOLECULAR SCIENCE).
     S,P,D,F,G SHELL TO TOTAL QUARTET ANGULAR MOMENTUM SUM 5,
        ERIC PROGRAM BY GRAHAM FLETCHER (ELORET AND NASA ADVANCED
        SUPERCOMPUTING DIVISION, AMES RESEARCH CENTER).
     S,P,D,F,G,L SHELL GENERAL RYS QUADRATURE PROGRAMMED BY
        MICHEL DUPUIS (PACIFIC NORTHWEST NATIONAL LABORATORY).

          --------------------
          2 ELECTRON INTEGRALS
          --------------------

 THE -PK- OPTION IS OFF, THE INTEGRALS ARE NOT IN SUPERMATRIX FORM.
 STORING   15000 INTEGRALS/RECORD ON DISK, USING 12 BYTES/INTEGRAL.
 TWO ELECTRON INTEGRAL EVALUATION REQUIRES   90957 WORDS OF MEMORY.
 SCHWARZ INEQUALITY OVERHEAD:      3003 INTEGRALS, T=        0.00
 II,JST,KST,LST =  1  1  1  1 NREC =         1 INTLOC =    1
 II,JST,KST,LST =  2  1  1  1 NREC =         1 INTLOC =    1
 II,JST,KST,LST =  3  1  1  1 NREC =         1 INTLOC =    1
 II,JST,KST,LST =  4  1  1  1 NREC =         1 INTLOC =    1
 II,JST,KST,LST =  5  1  1  1 NREC =         1 INTLOC =    1
 II,JST,KST,LST =  6  1  1  1 NREC =         1 INTLOC =    1
 II,JST,KST,LST =  7  1  1  1 NREC =         1 INTLOC =    4
 II,JST,KST,LST =  8  1  1  1 NREC =         1 INTLOC =  250
 II,JST,KST,LST =  9  1  1  1 NREC =         1 INTLOC =  250
 II,JST,KST,LST = 10  1  1  1 NREC =         1 INTLOC =  250
 II,JST,KST,LST = 11  1  1  1 NREC =         1 INTLOC = 1588
 II,JST,KST,LST = 12  1  1  1 NREC =         1 INTLOC = 1588
 II,JST,KST,LST = 13  1  1  1 NREC =         1 INTLOC = 1588
 II,JST,KST,LST = 14  1  1  1 NREC =         1 INTLOC = 2431
 II,JST,KST,LST = 15  1  1  1 NREC =         1 INTLOC = 2431
 II,JST,KST,LST = 16  1  1  1 NREC =         1 INTLOC = 8648
 II,JST,KST,LST = 17  1  1  1 NREC =         1 INTLOC = 8648
 II,JST,KST,LST = 18  1  1  1 NREC =         1 INTLOC = 8648
 II,JST,KST,LST = 19  1  1  1 NREC =         1 INTLOC = 8648
 II,JST,KST,LST = 20  1  1  1 NREC =         2 INTLOC =  764
 II,JST,KST,LST = 21  1  1  1 NREC =         2 INTLOC = 4640
 II,JST,KST,LST = 22  1  1  1 NREC =         2 INTLOC =12143
 II,JST,KST,LST = 23  1  1  1 NREC =         4 INTLOC =  618
 II,JST,KST,LST = 24  1  1  1 NREC =         6 INTLOC =12630
 II,JST,KST,LST = 25  1  1  1 NREC =         7 INTLOC =10667
 II,JST,KST,LST = 26  1  1  1 NREC =         7 INTLOC =14697
 II,JST,KST,LST = 27  1  1  1 NREC =         9 INTLOC =  906
 II,JST,KST,LST = 28  1  1  1 NREC =        10 INTLOC =14689
 II,JST,KST,LST = 29  1  1  1 NREC =        14 INTLOC = 3087
 II,JST,KST,LST = 30  1  1  1 NREC =        14 INTLOC = 8457
 II,JST,KST,LST = 31  1  1  1 NREC =        15 INTLOC = 3854
 II,JST,KST,LST = 32  1  1  1 NREC =        16 INTLOC = 6368
 II,JST,KST,LST = 33  1  1  1 NREC =        17 INTLOC =14842
 SCHWARZ INEQUALITY TEST SKIPPED           0 INTEGRAL BLOCKS.
 TOTAL NUMBER OF NONZERO TWO-ELECTRON INTEGRALS =             3901367
        269 INTEGRAL RECORDS WERE STORED ON DISK FILE  8.
  ...... END OF TWO-ELECTRON INTEGRALS .....
 CPU     0: STEP CPU TIME=     0.03 TOTAL CPU TIME=          0.1 (      0.0 MIN)
 TOTAL WALL CLOCK TIME=          0.1 SECONDS, CPU UTILIZATION IS    88.66%

          ---------------------------
              U-B3LYP SCF CALCULATION
          ---------------------------

     NUCLEAR ENERGY =        27.8520966630
     MAXIT = 30     NPUNCH=  2     MULT=  2
     EXTRAP=T  DAMP=F  SHIFT=F  RSTRCT=F  DIIS=T  SOSCF=T
         DENSITY MATRIX CONVERGENCE THRESHOLD=  1.00E-05
     COARSE -> FINE DFT GRID SWITCH THRESHOLD=  3.00E-04 (SWITCH IN $DFT)
                   HF -> DFT SWITCH THRESHOLD=  5.00E-03 (SWOFF IN $DFT)
     SOSCF WILL OPTIMIZE     520 ALPHA AND     462 BETA ROTATION ANGLES.
     SOGTOL= 2.500E-01
     MEMORY REQUIRED FOR UHF/ROHF ITERS=    298732 WORDS.

     EXCHANGE FUNCTIONAL   =B88&HFX   
     CORRELATION FUNCTIONAL=LYP88&VWN5
     DFT THRESHOLD         =.690E-08
     GRID CHANGE THRESHOLD =.300E-03
 FOR AN EULER-MACLAURIN QUADRATURE USING  96 RADIAL POINTS:
 SMALLEST GAUSSIAN PRIMITIVE EXPONENT=        0.0297400000 OF TYPE -S-
 ON ATOM NUMBER   3 HAS RADIAL NORMALIZATION=  1.000000
  LARGEST GAUSSIAN PRIMITIVE EXPONENT=     6665.0000000000 OF TYPE -S-
 ON ATOM NUMBER   1 HAS RADIAL NORMALIZATION=  1.000000
 DFT IS SWITCHED OFF, PERFORMING PURE SCF UNTIL SWOFF THRESHOLD IS REACHED.

 ITER EX      TOTAL ENERGY        E CHANGE  DENSITY CHANGE    DIIS ERROR
          * * *   INITIATING DIIS PROCEDURE   * * *
   1  0      -77.1747695489   -77.1747695489   0.498932966   0.357235909
   2  1      -77.3686347506    -0.1938652017   0.154129513   0.054095180
   3  2      -77.3846748334    -0.0160400828   0.031198164   0.026077095
   4  3      -77.3890924149    -0.0044175815   0.022173974   0.011260566
   5  4      -77.3904895773    -0.0013971624   0.012915838   0.008596664
   6  5      -77.3911429975    -0.0006534201   0.024213843   0.008601125
   7  6      -77.3922097877    -0.0010667902   0.063173401   0.008366938
   8  7      -77.3945796719    -0.0023698843   0.116236027   0.006581872
   9  8      -77.3961836044    -0.0016039324   0.073186565   0.002293699
  10  9      -77.3957161282     0.0004674762   0.044508279   0.004326826
  11 10      -77.3962747781    -0.0005586499   0.008303969   0.000811194
  12 11      -77.3962928472    -0.0000180691   0.000238625   0.000085837
 CONVERGED TO SWOFF, SO DFT CALCULATION IS NOW SWITCHED ON.
          * * *   INITIATING DIIS PROCEDURE   * * *
  13 12      -77.8300402944    -0.4337474472   0.394262164   0.062298746
  14 13      -77.8466529300    -0.0166126356   0.062730731   0.016756329
  15 14      -77.8493394963    -0.0026865663   0.024683457   0.012037668
  16 15      -77.8508007062    -0.0014612099   0.050490583   0.007390238
  17 16      -77.8517825727    -0.0009818665   0.009342973   0.003559347
  18 17      -77.8518703357    -0.0000877631   0.006127483   0.001395481
  19 18      -77.8518904229    -0.0000200872   0.002056903   0.000277527
         SWDIIS THRESHOLD HAS BEEN REACHED: SWITCHING DIIS OFF.
          ---------------START SECOND ORDER SCF---------------
  20 19      -77.8518916011    -0.0000011783   0.000137143   0.000022567
  21 20      -77.8518916134    -0.0000000122   0.000155704   0.000023179
  22 21      -77.8518916140    -0.0000000006   0.000065444   0.000021467
  23 22      -77.8518916182    -0.0000000042   0.000008975   0.000002424
  24 23      -77.8518916183    -0.0000000001   0.000013355   0.000001956

          ----------------
          ENERGY CONVERGED
          ----------------
     TIME TO FORM FOCK OPERATORS=       1.2 SECONDS (       0.1 SEC/ITER)
     TIME TO SOLVE SCF EQUATIONS=       0.1 SECONDS (       0.0 SEC/ITER)

 FINAL U-B3LYP ENERGY IS      -77.8518916183 AFTER  24 ITERATIONS
 DFT EXCHANGE + CORRELATION ENERGY =        -9.5239146971
 TOTAL ELECTRON NUMBER             =        14.9999760718

          --------------------
          SPIN SZ   =    0.500
          S-SQUARED =    0.764
          --------------------

  ----- ALPHA SET ----- 

          ------------
          EIGENVECTORS
          ------------

                      1          2          3          4          5
                  -10.2294   -10.2021    -0.7666    -0.5783    -0.4643
                     A          A          A          A          A   
    1  C  1  S    0.011957   1.009645  -0.019598   0.011341  -0.002193
    2  C  1  S   -0.001513   0.022140   0.316376  -0.227079   0.000262
    3  C  1  S    0.039959  -0.073241   0.096840  -0.324088  -0.036293
    4  C  1  X   -0.000000  -0.000020   0.000032   0.002769   0.015040
    5  C  1  Y   -0.000025  -0.000001   0.007844   0.030497   0.339602
    6  C  1  Z   -0.001001  -0.000355   0.110244   0.207060  -0.211059
    7  C  1  X   -0.000077   0.000036   0.001362   0.001000  -0.000126
    8  C  1  Y   -0.001399  -0.000273   0.023433   0.027235  -0.015693
    9  C  1  Z    0.038488  -0.008919  -0.028380  -0.243877   0.039090
   10  C  1 XX    0.000219  -0.001619  -0.006316   0.001502  -0.001707
   11  C  1 YY    0.000860   0.000827  -0.007550  -0.011268   0.008482
   12  C  1 ZZ   -0.001079   0.000792   0.013865   0.009766  -0.006775
   13  C  1 XY    0.000032   0.000125  -0.000056  -0.000673   0.000356
   14  C  1 XZ    0.000026   0.000011  -0.000028   0.000178  -0.000130
   15  C  1 YZ    0.000475   0.000043   0.000197   0.002359  -0.006079
   16  C  1  S    0.015227  -0.033872   0.016634   0.137705  -0.060747
   17  C  1  X    0.000052   0.000055  -0.000198   0.000487  -0.002495
   18  C  1  Y    0.000764   0.000810  -0.003868   0.009443  -0.058384
   19  C  1  Z    0.006205  -0.003672  -0.001804   0.011566  -0.008908
   20  C  1 XX   -0.002129   0.004862   0.006258  -0.006791  -0.006280
   21  C  1 YY   -0.004455   0.001528  -0.008259   0.105786  -0.044579
   22  C  1 ZZ    0.006584  -0.006390   0.002001  -0.098995   0.050858
   23  C  1 XY   -0.000127  -0.000177  -0.000494   0.006132  -0.001081
   24  C  1 XZ   -0.000179  -0.000084   0.001218   0.000578   0.004661
   25  C  1 YZ   -0.003164  -0.001079   0.024719   0.018519   0.104443
   26  C  2  S    1.009981  -0.013524  -0.017045  -0.006453  -0.000366
   27  C  2  S    0.022711  -0.001360   0.307175   0.269207  -0.069645
   28  C  2  S   -0.089588   0.024452   0.252594   0.494464  -0.240066
   29  C  2  X    0.000070   0.000005   0.001761   0.006761   0.013309
   30  C  2  Y    0.000897   0.000108   0.024307   0.096923   0.255123
   31  C  2  Z   -0.000213   0.000907  -0.127866   0.119156   0.165893
   32  C  2  X   -0.000226  -0.000062  -0.003349  -0.004651   0.000055
   33  C  2  Y   -0.003170  -0.001134  -0.057004  -0.092253   0.008259
   34  C  2  Z    0.030527  -0.016876  -0.090550  -0.222025   0.063158
   35  C  2 XX   -0.000852   0.000671  -0.011413  -0.001429  -0.000446
   36  C  2 YY    0.000513   0.000643  -0.003906   0.009790   0.005734
   37  C  2 ZZ    0.000338  -0.001314   0.015319  -0.008361  -0.005288
   38  C  2 XY    0.000092   0.000002   0.000327   0.000687   0.000559
   39  C  2 XZ    0.000060   0.000005  -0.000298  -0.000018  -0.000289
   40  C  2 YZ    0.000890   0.000040  -0.006116  -0.001582  -0.009571
   41  C  2  S   -0.029003   0.019718  -0.018870  -0.117734   0.022044
   42  C  2  X   -0.000087  -0.000083  -0.000077  -0.001643   0.000699
   43  C  2  Y   -0.001419  -0.001326  -0.000118  -0.027020   0.017915
   44  C  2  Z    0.004216  -0.005759   0.006726   0.004578  -0.013365
   45  C  2 XX    0.005983  -0.001051  -0.006890   0.005964   0.001148
   46  C  2 YY    0.004305  -0.001755  -0.017590  -0.059607  -0.008415
   47  C  2 ZZ   -0.010288   0.002806   0.024481   0.053643   0.007267
   48  C  2 XY   -0.000109  -0.000042  -0.001129  -0.004285  -0.001230
   49  C  2 XZ   -0.000264  -0.000077   0.000390  -0.001476   0.000360
   50  C  2 YZ   -0.004295  -0.001170   0.008554  -0.022679   0.013057
   51  H  3  S   -0.000661  -0.000100   0.124067   0.258604   0.195951
   52  H  3  S    0.021451   0.007223   0.064176   0.272792   0.110187
   53  H  3  X    0.000106  -0.000004  -0.000785  -0.001117  -0.000503
   54  H  3  Y    0.001712  -0.000008  -0.012681  -0.016764  -0.005979
   55  H  3  Z    0.000745   0.000189  -0.011297  -0.010014  -0.005306
   56  H  3  S    0.001317   0.001926   0.003349   0.026043   0.010592
   57  H  3  X   -0.000489  -0.000143  -0.000324  -0.003233  -0.000364
   58  H  3  Y   -0.007709  -0.002222  -0.007506  -0.042334  -0.012048
   59  H  3  Z   -0.002024  -0.000917  -0.017374  -0.029678  -0.011008
   60  H  4  S   -0.000343  -0.000846   0.116678  -0.228416  -0.139931
   61  H  4  S    0.017675   0.021857  -0.010639  -0.217078  -0.196544
   62  H  4  X   -0.000012  -0.000078   0.000695  -0.000775   0.000003
   63  H  4  Y   -0.000209  -0.001541   0.014337  -0.016856   0.000677
   64  H  4  Z   -0.000617  -0.001017   0.012515  -0.005382  -0.009959
   65  H  4  S    0.001757   0.002000   0.000000  -0.012599  -0.041423
   66  H  4  X    0.000233   0.000326  -0.000368  -0.001156  -0.002136
   67  H  4  Y    0.004811   0.006774  -0.009221  -0.020498  -0.049054
   68  H  4  Z    0.002427   0.003023   0.008788  -0.034275   0.011435
   69  H  5  S   -0.000186  -0.000920   0.126732  -0.203739   0.340466
   70  H  5  S    0.009293   0.019007   0.015936  -0.227688   0.433961
   71  H  5  X   -0.000003   0.000058  -0.000561   0.000646  -0.000310
   72  H  5  Y   -0.000082   0.001517  -0.014477   0.016635  -0.010180
   73  H  5  Z   -0.000420  -0.000948   0.011299  -0.004975   0.005080
   74  H  5  S    0.001700   0.001146   0.002377  -0.014165   0.045385
   75  H  5  X   -0.000088  -0.000233  -0.000109   0.000105  -0.002867
   76  H  5  Y   -0.002348  -0.006002   0.000374   0.020643  -0.071969
   77  H  5  Z    0.001994   0.002959  -0.001814  -0.054040   0.040917

                      6          7          8          9         10
                   -0.4138    -0.2849    -0.2733    -0.0199    -0.0019
                     A          A          A          A          A   
    1  C  1  S    0.000004  -0.000000   0.000616  -0.000069  -0.002989
    2  C  1  S   -0.036349   0.004355   0.050477   0.000371   0.084517
    3  C  1  S   -0.169407   0.003780   0.023774   0.000685   0.346769
    4  C  1  X   -0.010710   0.390561  -0.028934   0.403798   0.001040
    5  C  1  Y   -0.256858  -0.024489  -0.133346  -0.017259   0.029001
    6  C  1  Z   -0.318774   0.007239   0.113190  -0.002022  -0.095969
    7  C  1  X    0.003546   0.215567  -0.011699   0.338540   0.000787
    8  C  1  Y    0.059477  -0.007305   0.032236  -0.015407   0.041969
    9  C  1  Z   -0.091807  -0.001899  -0.021855  -0.001500  -0.282675
   10  C  1 XX   -0.001095  -0.000013   0.000550  -0.000040   0.000906
   11  C  1 YY    0.010493  -0.000069  -0.000669  -0.000038  -0.002749
   12  C  1 ZZ   -0.009398   0.000082   0.000119   0.000078   0.001843
   13  C  1 XY    0.000760   0.000627   0.000064   0.000062  -0.000211
   14  C  1 XZ    0.000907   0.021693   0.000591  -0.029997   0.000097
   15  C  1 YZ    0.013709   0.001023   0.040460   0.001798   0.001388
   16  C  1  S   -0.038271   0.011509   0.157548   0.001323   1.299390
   17  C  1  X    0.002376   0.028780  -0.001038   0.560841  -0.002336
   18  C  1  Y    0.051250  -0.000358   0.020108  -0.023529   0.036103
   19  C  1  Z   -0.014854   0.002805   0.040065  -0.001075  -0.298424
   20  C  1 XX    0.000009  -0.000023  -0.005572  -0.000114  -0.039377
   21  C  1 YY   -0.043860   0.001826   0.029081   0.000214   0.024232
   22  C  1 ZZ    0.043851  -0.001804  -0.023509  -0.000100   0.015145
   23  C  1 XY   -0.002193   0.004577   0.001323  -0.003250   0.003124
   24  C  1 XZ   -0.002080   0.003614  -0.001789  -0.041834   0.001902
   25  C  1 YZ   -0.052528  -0.001847  -0.035460   0.000851   0.027043
   26  C  2  S   -0.000893   0.000006  -0.000806  -0.000081  -0.002507
   27  C  2  S    0.030991  -0.010614  -0.151206   0.001346   0.056035
   28  C  2  S   -0.054893  -0.020609  -0.311425   0.003923   0.364901
   29  C  2  X    0.005195   0.442921  -0.002724  -0.411395   0.002731
   30  C  2  Y    0.033459   0.003879   0.474768   0.023054   0.043487
   31  C  2  Z    0.373411  -0.017924  -0.255478   0.002606   0.082440
   32  C  2  X   -0.003436   0.256477  -0.004430  -0.348037   0.006349
   33  C  2  Y   -0.065937  -0.000833   0.243482   0.021142   0.098678
   34  C  2  Z    0.045251  -0.014663  -0.222566   0.001564  -0.005623
   35  C  2 XX   -0.001562  -0.000122  -0.004775  -0.000102  -0.001706
   36  C  2 YY    0.010919  -0.000134  -0.000036   0.000004  -0.004849
   37  C  2 ZZ   -0.009357   0.000256   0.004812   0.000098   0.006555
   38  C  2 XY    0.000871  -0.000526   0.000667  -0.000070  -0.000188
   39  C  2 XZ    0.000988  -0.020275   0.002148  -0.032104  -0.000129
   40  C  2 YZ    0.017781   0.002024   0.020289   0.001207  -0.003559
   41  C  2  S   -0.014685  -0.017344  -0.260811   0.004283   0.871602
   42  C  2  X   -0.002028   0.031473  -0.000982  -0.512681   0.013337
   43  C  2  Y   -0.035739  -0.000508   0.023948   0.025497   0.190781
   44  C  2  Z   -0.015092   0.000875   0.007173   0.001645   0.148273
   45  C  2 XX   -0.004093   0.000500   0.006859   0.000676  -0.039419
   46  C  2 YY   -0.036516  -0.001463  -0.022795  -0.000615  -0.012673
   47  C  2 ZZ    0.040609   0.000963   0.015937  -0.000062   0.052091
   48  C  2 XY   -0.002636  -0.001402  -0.001542   0.008286   0.002148
   49  C  2 XZ   -0.000819  -0.007210  -0.000264  -0.037642   0.002129
   50  C  2 YZ   -0.017386  -0.000186  -0.012456   0.000824   0.033475
   51  H  3  S    0.231704   0.011179   0.195404  -0.003692   0.005460
   52  H  3  S    0.276642   0.014738   0.249416  -0.004022  -0.359154
   53  H  3  X   -0.000524   0.015660  -0.000763  -0.020900  -0.000650
   54  H  3  Y   -0.009224  -0.000540   0.006913   0.001151  -0.010635
   55  H  3  Z    0.001008  -0.001093  -0.015883   0.000113  -0.001613
   56  H  3  S    0.036674   0.001197   0.027576  -0.002189  -0.899467
   57  H  3  X   -0.002386   0.015258  -0.002635  -0.053450   0.002096
   58  H  3  Y   -0.038454  -0.002016  -0.017767   0.002066   0.032042
   59  H  3  Z   -0.036416  -0.002133  -0.029047   0.000016   0.033210
   60  H  4  S    0.325757   0.006603   0.145520   0.000534   0.006920
   61  H  4  S    0.391902   0.008418   0.193128   0.002099  -0.403991
   62  H  4  X    0.000548   0.014364  -0.000889   0.021777   0.000446
   63  H  4  Y    0.009641  -0.000725  -0.000851  -0.001018   0.009628
   64  H  4  Z    0.003263   0.000273   0.005112  -0.000178   0.002097
   65  H  4  S    0.035915   0.001744   0.039768   0.005494  -0.640874
   66  H  4  X    0.002910   0.015710   0.000607   0.045348  -0.002896
   67  H  4  Y    0.055157   0.001134   0.035438  -0.001850  -0.063496
   68  H  4  Z    0.052377  -0.000024   0.003288  -0.000828  -0.016711
   69  H  5  S   -0.074169  -0.011811  -0.209548  -0.002632   0.004050
   70  H  5  S   -0.184972  -0.018997  -0.337292  -0.003668  -0.419234
   71  H  5  X   -0.000155   0.014334  -0.000906   0.022646  -0.000497
   72  H  5  Y   -0.003199  -0.000560  -0.000073  -0.000986  -0.012171
   73  H  5  Z   -0.010881  -0.000030   0.000264  -0.000014   0.003445
   74  H  5  S   -0.043141  -0.001628  -0.041756  -0.003980  -1.136924
   75  H  5  X    0.001759   0.012849   0.000665   0.052745   0.001546
   76  H  5  Y    0.051048   0.001793   0.043117  -0.002723   0.036510
   77  H  5  Z   -0.005794  -0.001777  -0.023108   0.000607  -0.024795

                     11         12         13         14         15
                    0.0149     0.0250     0.0628     0.0711     0.0791
                     A          A          A          A          A   
    1  C  1  S   -0.001246   0.002375   0.000679   0.007653   0.002853
    2  C  1  S    0.067857  -0.016984  -0.000910  -0.012459   0.043552
    3  C  1  S    0.186045  -0.128958  -0.035543  -0.390408   0.153121
    4  C  1  X   -0.003083  -0.004345  -0.172178   0.011246  -0.000271
    5  C  1  Y   -0.066840  -0.118804   0.009159   0.036744   0.011248
    6  C  1  Z   -0.036183   0.004942   0.000697   0.013905   0.054902
    7  C  1  X   -0.008270  -0.014387  -0.199351   0.017270   0.001460
    8  C  1  Y   -0.169510  -0.372454   0.012618   0.100951   0.010114
    9  C  1  Z   -0.272312   0.104506   0.001591   0.031285  -0.043944
   10  C  1 XX    0.002840  -0.003156  -0.000251  -0.007398  -0.006858
   11  C  1 YY    0.004858  -0.001728   0.000044   0.001108  -0.010852
   12  C  1 ZZ   -0.007698   0.004883   0.000208   0.006290   0.017710
   13  C  1 XY    0.000142   0.000050   0.000874   0.000402  -0.000185
   14  C  1 XZ   -0.000370  -0.000169  -0.006095  -0.000303   0.000154
   15  C  1 YZ   -0.004799  -0.003796  -0.000293  -0.010468   0.002947
   16  C  1  S    0.434460  -1.737174  -0.740318 -10.816777   1.496371
   17  C  1  X   -0.005943  -0.084807   0.629139  -0.025316  -0.025594
   18  C  1  Y   -0.194018  -1.939770   0.027626   0.435761  -0.489368
   19  C  1  Z   -0.531874  -0.369468  -0.309933  -4.827562  -1.569364
   20  C  1 XX   -0.010906   0.016391   0.002817   0.080674   0.022283
   21  C  1 YY    0.022032  -0.051150  -0.007978  -0.153790   0.016336
   22  C  1 ZZ   -0.011126   0.034759   0.005161   0.073116  -0.038619
   23  C  1 XY    0.002539  -0.003065  -0.024499  -0.011122  -0.000801
   24  C  1 XZ   -0.001733   0.004681  -0.041181   0.003825   0.005966
   25  C  1 YZ   -0.043388   0.099283   0.000624   0.002788   0.114217
   26  C  2  S   -0.001257  -0.000725  -0.000454  -0.005495   0.005477
   27  C  2  S   -0.073527   0.047724   0.002467   0.041015   0.030424
   28  C  2  S   -0.234241   0.242253   0.029854   0.430674   0.049739
   29  C  2  X   -0.005932  -0.002162  -0.128338  -0.000349   0.002708
   30  C  2  Y   -0.084960  -0.046312  -0.000519  -0.142569   0.060698
   31  C  2  Z   -0.028025   0.023100   0.000740   0.004478  -0.076023
   32  C  2  X   -0.011856   0.005548  -0.145619   0.016879  -0.009934
   33  C  2  Y   -0.159842   0.092150   0.019958   0.115775  -0.141935
   34  C  2  Z   -0.249445   0.148461   0.000233   0.042988  -0.064563
   35  C  2 XX   -0.003394   0.001482  -0.000450   0.001434  -0.010069
   36  C  2 YY   -0.001796   0.002136   0.000545  -0.000572  -0.013411
   37  C  2 ZZ    0.005190  -0.003618  -0.000095  -0.000862   0.023480
   38  C  2 XY    0.000194  -0.000017  -0.003874   0.000074  -0.000236
   39  C  2 XZ    0.000402   0.000263   0.013333  -0.000598  -0.000300
   40  C  2 YZ    0.008171   0.007619  -0.000564   0.002017  -0.006656
   41  C  2  S   -0.502286   2.268689   0.744809  11.120012  -0.288389
   42  C  2  X   -0.038054   0.050159   0.592288  -0.026082   0.005341
   43  C  2  Y   -0.557501   1.019076  -0.048543   0.316819  -0.060717
   44  C  2  Z   -0.626375  -0.233789  -0.289644  -4.193129   1.876612
   45  C  2 XX    0.007842  -0.040832  -0.000756  -0.075964   0.062705
   46  C  2 YY   -0.062788   0.032323   0.000461   0.084450  -0.026842
   47  C  2 ZZ    0.054946   0.008509   0.000295  -0.008486  -0.035863
   48  C  2 XY   -0.005306   0.004746   0.039620   0.008676  -0.005169
   49  C  2 XZ   -0.004180   0.005007   0.015607   0.002904   0.005131
   50  C  2 YZ   -0.072723   0.084252   0.002111   0.058902   0.082993
   51  H  3  S    0.016549   0.015010  -0.000552  -0.022557  -0.017175
   52  H  3  S    0.673038  -0.542421  -0.052618  -0.847969   0.215071
   53  H  3  X    0.000632  -0.000090   0.005775   0.000281  -0.000496
   54  H  3  Y    0.010265   0.000204   0.000221   0.009772  -0.008406
   55  H  3  Z    0.008244  -0.000457   0.000099   0.005308   0.007079
   56  H  3  S    2.558984  -1.415778   0.220257   3.484393  -0.157326
   57  H  3  X   -0.005350   0.008876  -0.038297   0.012260  -0.005669
   58  H  3  Y   -0.083081   0.131499   0.012234   0.135228  -0.084016
   59  H  3  Z   -0.021349   0.003522   0.010534   0.142053  -0.096862
   60  H  4  S   -0.009916   0.012667  -0.000887  -0.023021  -0.023782
   61  H  4  S   -0.443438  -0.454634   0.044903   0.591822  -0.345135
   62  H  4  X    0.000425   0.000224   0.003541  -0.000273   0.000131
   63  H  4  Y    0.007574   0.002801  -0.000003  -0.000190   0.003605
   64  H  4  Z    0.007165   0.002845  -0.000477  -0.010595  -0.011259
   65  H  4  S   -2.023228  -3.121117   0.019716   0.444597  -1.127956
   66  H  4  X   -0.002220  -0.002939  -0.070131   0.006740  -0.001209
   67  H  4  Y   -0.059458  -0.052949   0.005229   0.032276  -0.012090
   68  H  4  Z   -0.007552  -0.053265   0.009618   0.145525   0.030088
   69  H  5  S    0.002702  -0.002518   0.001262   0.025564  -0.037599
   70  H  5  S   -0.162617   0.859878   0.030464   0.402417   0.098311
   71  H  5  X   -0.000045   0.000129   0.004185  -0.000265  -0.000267
   72  H  5  Y   -0.002506   0.004200  -0.000236  -0.001314  -0.006206
   73  H  5  Z    0.003295  -0.007297  -0.000216  -0.002392  -0.014385
   74  H  5  S   -0.502428   3.803416  -0.260151  -4.347893   0.578271
   75  H  5  X    0.002393  -0.002490  -0.031327   0.004288  -0.003554
   76  H  5  Y    0.063481  -0.091185  -0.000609  -0.001117  -0.090010
   77  H  5  Z    0.051538   0.069353   0.009236   0.101308   0.038633

                     16         17         18         19         20
                    0.1117     0.1125     0.1167     0.1280     0.1462
                     A          A          A          A          A   
    1  C  1  S    0.005315  -0.001001  -0.039019  -0.014720  -0.014842
    2  C  1  S   -0.062596   0.001684  -0.204338  -0.019027  -0.120259
    3  C  1  S   -1.009205   0.077182   0.342821   0.519180   0.512600
    4  C  1  X    0.020953   0.235199  -0.005614   0.007446   0.004096
    5  C  1  Y    0.110683  -0.017204  -0.084485   0.238661   0.038403
    6  C  1  Z    0.003872   0.000098   0.121123   0.001054   0.130817
    7  C  1  X   -0.006865   0.188437   0.006335  -0.045516   0.000609
    8  C  1  Y   -0.416189   0.016895   0.299605  -0.931385  -0.170356
    9  C  1  Z   -1.255422   0.058975  -1.534527  -0.372433   1.541265
   10  C  1 XX    0.001100   0.000368   0.019921   0.016255  -0.039132
   11  C  1 YY   -0.000169  -0.000170   0.003776  -0.007814   0.048472
   12  C  1 ZZ   -0.000931  -0.000198  -0.023697  -0.008441  -0.009340
   13  C  1 XY    0.000172   0.001255  -0.000762  -0.001696   0.004452
   14  C  1 XZ    0.000881  -0.006930  -0.000398   0.000499  -0.001066
   15  C  1 YZ    0.024141  -0.001050  -0.007507   0.009319  -0.016994
   16  C  1  S   -5.663337   0.451071   5.173475   5.221039   0.146820
   17  C  1  X   -0.153551  -2.227096   0.095920  -0.256993  -0.109045
   18  C  1  Y   -0.250204   0.118033   1.825998  -6.063641  -2.415198
   19  C  1  Z   -3.651266   0.224149  -1.884551   1.693730   0.566012
   20  C  1 XX    0.044665  -0.007638  -0.161192  -0.035870  -0.098193
   21  C  1 YY    0.187354  -0.002784   0.338338   0.196233  -0.658795
   22  C  1 ZZ   -0.232019   0.010422  -0.177146  -0.160362   0.756988
   23  C  1 XY    0.007585  -0.034059   0.024565   0.015521  -0.028158
   24  C  1 XZ   -0.006356  -0.055843   0.003310   0.014637   0.019161
   25  C  1 YZ   -0.061905   0.006583  -0.012993   0.333543   0.320981
   26  C  2  S    0.008491  -0.001207  -0.036234  -0.026056   0.024730
   27  C  2  S    0.112539  -0.008572  -0.114246  -0.098436   0.013056
   28  C  2  S    0.490664  -0.005449   1.271874   0.765939  -2.183516
   29  C  2  X   -0.003666  -0.240893   0.001993   0.001533  -0.007637
   30  C  2  Y    0.182065   0.001468  -0.009580   0.001772  -0.093121
   31  C  2  Z    0.058907  -0.003565  -0.085618  -0.008346  -0.068340
   32  C  2  X   -0.040774  -0.226706   0.011423   0.027625  -0.033581
   33  C  2  Y   -0.364191   0.045806   0.142943   0.396157  -0.517325
   34  C  2  Z   -1.386803   0.083037  -0.866921   0.129498   1.077166
   35  C  2 XX   -0.004703  -0.000093   0.005620   0.013379  -0.011886
   36  C  2 YY    0.006090   0.000169   0.002364  -0.007664   0.017794
   37  C  2 ZZ   -0.001387  -0.000076  -0.007984  -0.005715  -0.005908
   38  C  2 XY    0.000505  -0.005956   0.000050  -0.001385   0.001464
   39  C  2 XZ   -0.001008  -0.004067   0.000087  -0.000711  -0.000205
   40  C  2 YZ   -0.016040   0.000970   0.004123  -0.017143   0.001834
   41  C  2  S    4.110944  -0.221327   2.571252  -0.887380  -1.952253
   42  C  2  X   -0.035292   2.237386  -0.058206   0.176717   0.038462
   43  C  2  Y   -2.826741   0.084989  -0.709531   3.489791   0.675121
   44  C  2  Z   -4.228902   0.276087  -0.078205   2.234375   1.062769
   45  C  2 XX    0.007227   0.003567  -0.128322  -0.070849  -0.023988
   46  C  2 YY   -0.309277   0.013630  -0.125182   0.039022   0.194362
   47  C  2 ZZ    0.302050  -0.017197   0.253504   0.031827  -0.170374
   48  C  2 XY   -0.019592   0.062983   0.001205   0.006312   0.011020
   49  C  2 XZ   -0.020620  -0.083098   0.007514   0.009464   0.012407
   50  C  2 YZ   -0.247142   0.021039   0.099518   0.144491   0.184351
   51  H  3  S   -0.021619  -0.001258   0.009876  -0.086660   0.104466
   52  H  3  S    2.262185  -0.177875  -0.582586  -1.769730   0.632281
   53  H  3  X   -0.001230  -0.000448   0.000722   0.000752  -0.000502
   54  H  3  Y   -0.019717   0.001642   0.011721   0.010865  -0.008271
   55  H  3  Z   -0.012337   0.001059  -0.001683   0.015068  -0.005208
   56  H  3  S    6.200697  -0.422104   0.060989  -3.813794  -0.743241
   57  H  3  X   -0.043902  -0.116184   0.017112   0.020048   0.006476
   58  H  3  Y   -0.611929   0.050972   0.257164   0.277709   0.211461
   59  H  3  Z   -0.390764   0.028848   0.074257   0.159023  -0.141095
   60  H  4  S    0.029074  -0.001898  -0.002852  -0.057010   0.098297
   61  H  4  S   -1.078631   0.032042  -1.667796  -3.128400   0.721453
   62  H  4  X   -0.000604  -0.000312  -0.000476  -0.001093  -0.000956
   63  H  4  Y   -0.010907   0.000506  -0.009491  -0.022925  -0.023819
   64  H  4  Z   -0.009018   0.000420  -0.000915  -0.011102   0.006001
   65  H  4  S   -3.883442   0.215206  -0.734910  -5.145510  -1.950557
   66  H  4  X   -0.011285   0.090060  -0.023070  -0.026614  -0.016742
   67  H  4  Y   -0.332865   0.009879  -0.436044  -0.570997  -0.472554
   68  H  4  Z   -0.305603   0.011789  -0.204978  -0.569603   0.403193
   69  H  5  S   -0.020174  -0.000875  -0.017884  -0.021508   0.225820
   70  H  5  S   -0.072638  -0.032768  -2.727914   1.124720   2.820164
   71  H  5  X   -0.000253   0.001533   0.001020  -0.000763   0.000643
   72  H  5  Y   -0.007639   0.000743   0.026130  -0.016481   0.011471
   73  H  5  Z    0.000387  -0.000176  -0.013654   0.014750  -0.000299
   74  H  5  S   -1.310548   0.065965  -4.203653   6.580035   2.780913
   75  H  5  X    0.006865   0.121940   0.025615  -0.022957   0.013596
   76  H  5  Y    0.001417  -0.000320   0.665834  -0.422182   0.142664
   77  H  5  Z    0.100237  -0.011421  -0.424000   0.169121   0.436116

                     21         22         23         24         25
                    0.1683     0.1951     0.2195     0.2531     0.2851
                     A          A          A          A          A   
    1  C  1  S    0.049033   0.019060  -0.000320  -0.005400   0.009976
    2  C  1  S    0.158119   0.012923   0.000518  -0.031126   0.138527
    3  C  1  S   -2.117314  -0.586154  -0.010080   0.760310  -0.390833
    4  C  1  X   -0.000873   0.005296   0.002659  -0.007710   0.000131
    5  C  1  Y   -0.067706   0.123923   0.011757  -0.200052  -0.007373
    6  C  1  Z   -0.061594  -0.021092   0.000006   0.074739   0.018426
    7  C  1  X    0.001888   0.038865  -0.069646  -0.010848  -0.003587
    8  C  1  Y   -0.097783   0.603664   0.029964  -0.225921  -0.087661
    9  C  1  Z   -1.022372   1.218296  -0.074152   0.761521  -2.390871
   10  C  1 XX    0.014528  -0.024780   0.004254  -0.015297   0.023976
   11  C  1 YY   -0.006201   0.025604  -0.003698   0.017224   0.073708
   12  C  1 ZZ   -0.008326  -0.000825  -0.000556  -0.001927  -0.097684
   13  C  1 XY   -0.000606   0.003031   0.047059   0.003573   0.002668
   14  C  1 XZ   -0.001963   0.001856  -0.002638  -0.001181   0.000624
   15  C  1 YZ   -0.037861   0.036967   0.001255  -0.031595   0.013356
   16  C  1  S  -18.163885 -20.837050   0.791197 -10.345176  -2.442589
   17  C  1  X   -0.009342   0.107664   0.019941  -0.077106   0.034308
   18  C  1  Y   -0.149022   2.465162   0.021629  -1.749090   1.003969
   19  C  1  Z   -6.182964  -5.908291   0.224216  -2.268081  -4.052708
   20  C  1 XX    0.179027   0.118763  -0.012219   0.082848   0.272532
   21  C  1 YY    0.148542  -0.557757   0.028207  -0.211127  -0.134065
   22  C  1 ZZ   -0.327570   0.438994  -0.015988   0.128279  -0.138467
   23  C  1 XY   -0.001350  -0.038573  -0.173619  -0.026922  -0.025551
   24  C  1 XZ    0.019143  -0.002190  -0.017000   0.036152  -0.004058
   25  C  1 YZ    0.446919  -0.188911  -0.026589   0.855629  -0.219526
   26  C  2  S   -0.045639  -0.017769   0.000300  -0.004167  -0.034226
   27  C  2  S   -0.197491  -0.049475   0.000328  -0.000054  -0.164081
   28  C  2  S    1.622997  -0.507969   0.015819  -0.365769   0.610237
   29  C  2  X   -0.004451   0.006478  -0.040883   0.014030   0.005033
   30  C  2  Y   -0.037584   0.061504  -0.009589   0.287932   0.038884
   31  C  2  Z   -0.109099  -0.007787   0.001562   0.021519   0.251329
   32  C  2  X   -0.006827   0.044824  -0.233909   0.022101  -0.024689
   33  C  2  Y   -0.151195   0.780850  -0.035487   0.392068  -0.410278
   34  C  2  Z   -1.213126   1.117817  -0.068513   0.802023  -1.570730
   35  C  2 XX   -0.016143   0.012170   0.001643   0.014719  -0.029506
   36  C  2 YY    0.011354   0.003810  -0.002195  -0.021497  -0.022216
   37  C  2 ZZ    0.004788  -0.015980   0.000552   0.006778   0.051722
   38  C  2 XY    0.002358  -0.000802   0.021936  -0.001484  -0.000149
   39  C  2 XZ    0.000856  -0.002891   0.009216   0.000609   0.000290
   40  C  2 YZ    0.018366  -0.052448  -0.001031   0.010052   0.007430
   41  C  2  S   18.396579  20.976191  -0.805861  10.989886   4.123313
   42  C  2  X   -0.106311  -0.051164  -0.169688   0.077580  -0.068768
   43  C  2  Y   -1.678955  -1.008116   0.003635   1.610061  -1.319259
   44  C  2  Z   -6.130710  -5.255016   0.230956  -2.406705  -1.659696
   45  C  2 XX   -0.183895  -0.164067   0.017662  -0.001241  -0.189420
   46  C  2 YY   -0.169910   0.197394  -0.034842   0.201923  -0.180736
   47  C  2 ZZ    0.353805  -0.033326   0.017180  -0.200682   0.370156
   48  C  2 XY    0.004262   0.023779   0.255338   0.025624   0.001001
   49  C  2 XZ    0.015358   0.023099  -0.114116   0.023671  -0.012556
   50  C  2 YZ    0.335175   0.279917  -0.018851   0.614059  -0.339227
   51  H  3  S    0.178188  -0.178918   0.002623  -0.092240   0.024623
   52  H  3  S   -0.258741  -3.002041   0.185337  -2.937371   2.148378
   53  H  3  X    0.000661   0.000007  -0.004131  -0.000459  -0.000205
   54  H  3  Y    0.013054  -0.002270   0.000067  -0.003110  -0.002712
   55  H  3  Z    0.004912  -0.007247   0.000166  -0.004765   0.012555
   56  H  3  S    3.155031   1.716067  -0.109038   0.152362   2.712850
   57  H  3  X    0.041716   0.041505   0.522307   0.013909  -0.063945
   58  H  3  Y    0.591412   0.627003  -0.053317  -0.238179  -0.713431
   59  H  3  Z    0.160673  -0.197195  -0.020365   0.219559  -0.235178
   60  H  4  S   -0.161781   0.216055   0.001684   0.013629  -0.017254
   61  H  4  S   -0.629543   3.604089  -0.006259  -0.758310  -1.146639
   62  H  4  X    0.001003  -0.000055  -0.000629  -0.000035  -0.000700
   63  H  4  Y    0.019929   0.001934  -0.000397  -0.000086  -0.015517
   64  H  4  Z    0.022087  -0.001365  -0.000886   0.024416   0.008939
   65  H  4  S   -2.009073   0.899471   0.018355  -0.457117  -0.894885
   66  H  4  X    0.000065   0.005680  -0.729933  -0.055107  -0.031104
   67  H  4  Y    0.136664   0.194600   0.024836  -0.334522  -0.588416
   68  H  4  Z    0.218350   0.139264  -0.016972   0.421606   0.842516
   69  H  5  S    0.029354  -0.054215  -0.006465   0.156232  -0.048527
   70  H  5  S    1.520850   1.104445  -0.169568   2.750200  -1.915422
   71  H  5  X   -0.000612   0.000155   0.003086   0.000847   0.000606
   72  H  5  Y   -0.015752   0.001827  -0.000390   0.016453   0.012592
   73  H  5  Z   -0.008058   0.015965   0.000796  -0.017831   0.017886
   74  H  5  S   -1.447575  -3.067725   0.096436   0.018471  -2.744258
   75  H  5  X   -0.009473   0.007336   0.832344   0.039482   0.037052
   76  H  5  Y   -0.471107  -0.054047  -0.019430  -0.029445   0.831731
   77  H  5  Z   -0.041983   0.606152   0.002020  -0.519325   0.868921

                     26         27         28         29         30
                    0.3082     0.3146     0.3551     0.3773     0.4045
                     A          A          A          A          A   
    1  C  1  S    0.001413  -0.030295  -0.000475  -0.019897   0.040053
    2  C  1  S    0.006399  -0.127494   0.000335  -0.059019  -0.017050
    3  C  1  S   -0.056387   1.390528   0.029856   1.781814  -2.101746
    4  C  1  X   -0.058060  -0.012461  -0.245807   0.014386   0.003280
    5  C  1  Y    0.008899  -0.139198   0.011450   0.279001   0.055053
    6  C  1  Z    0.012691  -0.253314  -0.000633  -0.076126  -0.000553
    7  C  1  X   -0.347358   0.002679  -0.966005   0.142099   0.016148
    8  C  1  Y   -0.007562   0.217813   0.038795   3.104859   0.292316
    9  C  1  Z   -0.131456   2.247840   0.032369   1.718351  -1.794440
   10  C  1 XX   -0.001635  -0.026614   0.000487  -0.013532   0.018277
   11  C  1 YY    0.003976   0.001937  -0.000794   0.006379   0.008542
   12  C  1 ZZ   -0.002341   0.024678   0.000308   0.007153  -0.026820
   13  C  1 XY   -0.034624   0.000383   0.011123   0.000542  -0.000416
   14  C  1 XZ   -0.018239  -0.002086  -0.029609  -0.002152  -0.000427
   15  C  1 YZ    0.002498  -0.023169   0.001445  -0.050374  -0.010072
   16  C  1  S   -0.447615   5.273124   0.046437   0.074662  -6.274373
   17  C  1  X   -0.092209  -0.176571  -1.111496   0.214779   0.080978
   18  C  1  Y    0.198344  -3.598368   0.063800   4.850239   1.576055
   19  C  1  Z   -0.159859   1.478924   0.002281  -0.084861  -1.788013
   20  C  1 XX    0.054266  -0.079240  -0.022592  -0.076203   0.529222
   21  C  1 YY   -0.020824  -0.556294   0.000862  -0.331476   0.609183
   22  C  1 ZZ   -0.033443   0.635534   0.021730   0.407679  -1.138405
   23  C  1 XY    0.515163  -0.002430  -0.227176  -0.020283  -0.009294
   24  C  1 XZ   -0.000749   0.059105   0.079473   0.008830   0.009904
   25  C  1 YZ   -0.059760   1.048663  -0.007187   0.292979   0.275007
   26  C  2  S   -0.001899   0.026947   0.000112   0.010028   0.032249
   27  C  2  S   -0.007503   0.108129   0.000783   0.027778  -0.012952
   28  C  2  S    0.091234  -1.523534  -0.031115  -0.531594  -0.285195
   29  C  2  X   -0.112329  -0.005229   0.044913   0.002046  -0.011012
   30  C  2  Y    0.004299   0.034714   0.000799   0.034720  -0.203520
   31  C  2  Z    0.001776   0.020665  -0.001723  -0.018664   0.035057
   32  C  2  X   -0.633842  -0.058571   0.444129   0.027058  -0.131538
   33  C  2  Y    0.070368  -0.511464   0.004690   0.195110  -2.252600
   34  C  2  Z   -0.155637   2.943385   0.036503   2.009710  -2.937078
   35  C  2 XX    0.001946   0.028317  -0.000921   0.007191   0.005457
   36  C  2 YY   -0.006314   0.051227   0.000897   0.011077  -0.020924
   37  C  2 ZZ    0.004368  -0.079544   0.000023  -0.018268   0.015467
   38  C  2 XY    0.035136   0.003252  -0.010234   0.000230  -0.002187
   39  C  2 XZ    0.024774  -0.000097   0.015165   0.000319  -0.000521
   40  C  2 YZ   -0.000352  -0.021159  -0.000408   0.006427  -0.007502
   41  C  2  S    0.364174  -4.211470   0.027584   0.656256   0.715380
   42  C  2  X   -0.472668   0.127655   0.537579  -0.018099  -0.162972
   43  C  2  Y   -0.131538   2.620153  -0.011408  -0.636779  -2.742445
   44  C  2  Z   -0.249159   3.931781  -0.007645   0.594420  -1.909184
   45  C  2 XX   -0.052147   0.349373  -0.019334   0.146185   0.895916
   46  C  2 YY    0.017364   0.371969   0.027471   0.769629  -0.952443
   47  C  2 ZZ    0.034783  -0.721342  -0.008137  -0.915814   0.056527
   48  C  2 XY   -0.361424  -0.013450  -0.178002   0.036584  -0.129231
   49  C  2 XZ   -0.168104   0.058816   0.328570   0.032225   0.005429
   50  C  2 YZ   -0.051948   1.140851  -0.018849   0.722848   0.124438
   51  H  3  S    0.002838  -0.021928  -0.000414   0.054852  -0.034301
   52  H  3  S    0.159829  -2.898199  -0.069822  -3.286552   6.761668
   53  H  3  X    0.004928   0.000056   0.000127  -0.000016   0.000057
   54  H  3  Y   -0.000198  -0.000739  -0.000051   0.000535   0.002014
   55  H  3  Z    0.001998  -0.034476  -0.000088  -0.009410   0.008893
   56  H  3  S    0.203593  -2.878153  -0.005711  -0.557791   3.005076
   57  H  3  X    1.515647   0.139765  -0.385784   0.037858  -0.099096
   58  H  3  Y   -0.142670   1.019819   0.026987   0.476283  -1.418368
   59  H  3  Z    0.050435  -1.074092   0.019699   0.750212  -0.887498
   60  H  4  S    0.004808  -0.051745  -0.000957   0.026029   0.039307
   61  H  4  S    0.024258  -0.596614   0.006800   4.336224   0.148081
   62  H  4  X    0.005025  -0.000060  -0.011877   0.000286   0.000361
   63  H  4  Y   -0.000589  -0.000925   0.000416   0.004949   0.003907
   64  H  4  Z   -0.000246   0.004289  -0.000033   0.002792   0.000620
   65  H  4  S    0.058400  -1.333891   0.009725   4.142830   0.207505
   66  H  4  X    1.285175   0.068434   0.715886  -0.003103  -0.031532
   67  H  4  Y   -0.081831   0.132451  -0.031168  -0.090539  -0.296126
   68  H  4  Z   -0.037506   0.790360   0.008717   1.548488  -0.433657
   69  H  5  S   -0.000448   0.045322  -0.001662   0.009766   0.021322
   70  H  5  S   -0.153629   3.286563  -0.012541  -2.734502   0.542715
   71  H  5  X   -0.006413   0.000002  -0.009976   0.000716  -0.000134
   72  H  5  Y    0.000245   0.008318   0.000406   0.014429   0.000541
   73  H  5  Z    0.001891  -0.032682   0.000110  -0.018074   0.001464
   74  H  5  S   -0.225429   3.639632  -0.032871  -3.874588  -0.951814
   75  H  5  X   -0.460321  -0.022885   1.620645  -0.027017   0.009391
   76  H  5  Y    0.060977  -0.533282  -0.068041  -0.383048  -0.219678
   77  H  5  Z   -0.004577   0.420368   0.003977  -0.916443  -0.192581

                     31         32         33         34         35
                    0.4382     0.4436     0.4481     0.4763     0.4836
                     A          A          A          A          A   
    1  C  1  S    0.065630   0.011963  -0.003133   0.020399  -0.003422
    2  C  1  S    0.030664  -0.049417   0.002170  -0.026884  -0.028505
    3  C  1  S   -4.253510   0.856594   0.012210  -2.095649   0.143399
    4  C  1  X    0.004289   0.029301   0.248671  -0.011502   0.050099
    5  C  1  Y    0.027315  -0.066538  -0.007035  -0.130681   0.042181
    6  C  1  Z    0.082712  -0.001394  -0.011176  -0.020981  -0.083024
    7  C  1  X    0.017325   0.266697   1.786227  -0.192789   0.303645
    8  C  1  Y   -0.617167   1.202939  -0.372457  -3.536983  -0.473287
    9  C  1  Z    5.889009   3.777761  -0.527881  -0.817615  -0.686266
   10  C  1 XX    0.017888  -0.008670   0.000268  -0.013137  -0.002430
   11  C  1 YY   -0.026286  -0.005297   0.001182   0.012502   0.001551
   12  C  1 ZZ    0.008398   0.013968  -0.001450   0.000636   0.000878
   13  C  1 XY   -0.002190   0.000640   0.002176   0.001241   0.005245
   14  C  1 XZ    0.000502  -0.000261  -0.013840   0.000274   0.031260
   15  C  1 YZ    0.020138   0.011585   0.000577  -0.011581   0.013190
   16  C  1  S   -6.787234  -3.983318   0.807235   3.763665   1.189741
   17  C  1  X    0.003180   0.196606   1.125391  -0.056365  -0.160043
   18  C  1  Y   -0.587945   1.611426  -0.309006  -0.754950  -0.160203
   19  C  1  Z    1.126512   0.220082  -0.003796   0.784831   0.019212
   20  C  1 XX    0.575503   0.257685  -0.085743  -0.469831  -0.058641
   21  C  1 YY   -1.917344  -0.774899   0.117115   0.462869  -0.016309
   22  C  1 ZZ    1.341840   0.517213  -0.031372   0.006962   0.074951
   23  C  1 XY   -0.119190  -0.091065  -0.250178   0.073833   0.318403
   24  C  1 XZ    0.021112  -0.178125  -0.098996  -0.023025  -1.392901
   25  C  1 YZ    0.617096  -2.620594   0.295538  -0.128666   0.354973
   26  C  2  S    0.062401   0.028715  -0.002977   0.055065  -0.000343
   27  C  2  S   -0.000029  -0.023921   0.007062   0.017007   0.029615
   28  C  2  S   -6.390794  -2.508764   0.287357  -4.412310   0.398199
   29  C  2  X    0.002833  -0.017537  -0.254618  -0.001223   0.246772
   30  C  2  Y    0.126992   0.066580   0.003995  -0.135316  -0.001035
   31  C  2  Z    0.029428  -0.082592   0.000374  -0.183238  -0.055785
   32  C  2  X   -0.049300   0.135913  -0.708111  -0.085581   1.488942
   33  C  2  Y   -0.728723   3.187439  -0.292522  -1.495198  -0.194202
   34  C  2  Z    3.031922   2.812671  -0.380082  -2.393515  -0.622003
   35  C  2 XX    0.032906  -0.000577   0.000351  -0.009854   0.004566
   36  C  2 YY   -0.012642   0.026813  -0.003230   0.016107  -0.003802
   37  C  2 ZZ   -0.020264  -0.026236   0.002879  -0.006254  -0.000763
   38  C  2 XY   -0.002738   0.002324   0.004291   0.001725  -0.004327
   39  C  2 XZ   -0.001281   0.001118  -0.015380   0.001419  -0.002324
   40  C  2 YZ   -0.020972   0.054530  -0.005590   0.012771  -0.010024
   41  C  2  S   -0.781574   1.379541  -0.362780  -4.829711  -0.990521
   42  C  2  X   -0.000756  -0.102130  -1.175942   0.005732   0.514935
   43  C  2  Y    0.506974   0.043238   0.075328  -0.263917  -0.052643
   44  C  2  Z   -0.218285  -0.140777   0.065732   0.157276   0.086771
   45  C  2 XX    0.039600   0.222135  -0.086112  -0.131164   0.177666
   46  C  2 YY    0.506695   1.364583  -0.068349   0.100831   0.027301
   47  C  2 ZZ   -0.546294  -1.586718   0.154461   0.030333  -0.204967
   48  C  2 XY    0.011101   0.043636  -0.663804   0.018838   0.949485
   49  C  2 XZ   -0.003050   0.086823   1.049314  -0.058385   0.288163
   50  C  2 YZ   -0.375235  -0.823370   0.008837  -0.369919  -0.263718
   51  H  3  S   -0.094318   0.185761  -0.021941   0.126811  -0.051159
   52  H  3  S    1.228492  -3.178778   0.406674   6.575181   0.490185
   53  H  3  X   -0.001095  -0.000540  -0.017148   0.002025   0.021690
   54  H  3  Y   -0.018811   0.013051  -0.000019   0.028891  -0.004096
   55  H  3  Z   -0.020836   0.025488  -0.003086   0.002736  -0.009508
   56  H  3  S   -0.045250  -0.199431   0.015148   0.923399   0.107671
   57  H  3  X   -0.009935   0.034621   0.745553  -0.200624  -1.382158
   58  H  3  Y   -0.422342  -0.190723  -0.065566  -3.265195  -0.140126
   59  H  3  Z   -0.100778   1.444352  -0.124630  -0.990594   0.468039
   60  H  4  S   -0.041513  -0.083412   0.012807   0.015734   0.058083
   61  H  4  S    6.131980   9.327826  -1.382955  -5.709084  -1.264720
   62  H  4  X    0.000376   0.001045   0.016919  -0.000221  -0.004539
   63  H  4  Y    0.007516  -0.018144   0.001073   0.004119  -0.001387
   64  H  4  Z   -0.005985  -0.011723   0.000156  -0.001098  -0.012600
   65  H  4  S    1.426101   1.873605  -0.293491  -0.881490  -0.143166
   66  H  4  X    0.050146  -0.017247  -1.309523  -0.046837  -0.175403
   67  H  4  Y    1.113836   2.989214  -0.359016  -1.585482  -0.272470
   68  H  4  Z    1.835636   0.124973  -0.052058  -1.172975   0.109688
   69  H  5  S   -0.176639   0.090150  -0.009589   0.106828  -0.038775
   70  H  5  S    9.078207  -2.549521   0.324943   4.508182   0.200592
   71  H  5  X   -0.000259   0.001090   0.008152   0.000980   0.013238
   72  H  5  Y   -0.006745  -0.005731   0.000403   0.021845  -0.005197
   73  H  5  Z    0.007327  -0.004200   0.000793   0.003027   0.003219
   74  H  5  S    1.543529  -0.515124   0.089210   0.765757  -0.067562
   75  H  5  X   -0.092822  -0.010047  -0.438548  -0.119013  -1.133710
   76  H  5  Y   -2.113976   1.492819  -0.160041  -2.467706   0.151328
   77  H  5  Z    1.133218   0.986534  -0.058121   1.417268   0.098366

                     36         37         38         39         40
                    0.4862     0.4934     0.5048     0.5567     0.5627
                     A          A          A          A          A   
    1  C  1  S    0.011333   0.104088  -0.026108   0.078681   0.012628
    2  C  1  S   -0.104183  -0.005423  -0.027344   0.021984   0.004905
    3  C  1  S   -1.551008  -8.221144   4.359977  -8.408235  -1.254654
    4  C  1  X   -0.010838   0.005920  -0.006993  -0.005240   0.070232
    5  C  1  Y    0.169240   0.005499  -0.111594  -0.064419  -0.006843
    6  C  1  Z   -0.238098   0.322574  -0.088104  -0.143470  -0.024497
    7  C  1  X   -0.175138  -0.012668  -0.375190  -0.189196   1.347340
    8  C  1  Y   -0.395484  -1.058634  -7.098654  -0.146515  -0.049349
    9  C  1  Z   -2.736245  -2.679709   1.449468  -1.688713  -0.392403
   10  C  1 XX   -0.010576   0.008392  -0.006213   0.026361   0.004780
   11  C  1 YY    0.012837   0.032109  -0.009161  -0.007732  -0.002014
   12  C  1 ZZ   -0.002261  -0.040501   0.015374  -0.018629  -0.002765
   13  C  1 XY   -0.000018   0.001377  -0.000405  -0.002544   0.002229
   14  C  1 XZ   -0.004917   0.001271  -0.000381   0.006998  -0.055196
   15  C  1 YZ    0.054633  -0.002331   0.013243  -0.028236  -0.001416
   16  C  1  S    4.368476  -4.979023  -4.812104 -14.574105  -2.517911
   17  C  1  X    0.013513  -0.026294  -0.087605   0.008263   0.227777
   18  C  1  Y   -0.128997  -0.615293  -1.888791   0.941748   0.142608
   19  C  1  Z    0.331956  -0.205698  -0.979705  -4.832978  -0.836565
   20  C  1 XX   -0.294544   0.300295   0.555674  -0.055459   0.151516
   21  C  1 YY    0.491636   2.663899  -0.684955  -1.769284  -0.375946
   22  C  1 ZZ   -0.197092  -2.964195   0.129281   1.824743   0.224430
   23  C  1 XY   -0.030281   0.139330  -0.071455  -0.312450   1.578453
   24  C  1 XZ    0.407306  -0.053745   0.075101  -0.264838   2.147554
   25  C  1 YZ    0.731714   0.420372   0.277354   0.162571  -0.035859
   26  C  2  S   -0.006415  -0.088082  -0.030148  -0.051291  -0.008719
   27  C  2  S    0.090317  -0.081308  -0.009583   0.133437   0.019708
   28  C  2  S    2.254978  10.075771   2.676357   2.942749   0.569600
   29  C  2  X   -0.053400   0.008943  -0.004734   0.053648  -0.314984
   30  C  2  Y    0.074095  -0.025438  -0.018041   0.002262   0.011551
   31  C  2  Z   -0.191059   0.174762  -0.001548  -0.086085  -0.012279
   32  C  2  X   -0.401925   0.142232   0.124598   0.199338  -1.404041
   33  C  2  Y   -0.487725   1.074523   3.247974   0.594659   0.095453
   34  C  2  Z   -2.950541  -3.082126   2.601355  -1.554365  -0.350612
   35  C  2 XX    0.011707  -0.050014   0.003221   0.010623   0.003355
   36  C  2 YY   -0.013721   0.004303   0.006882  -0.026457  -0.006331
   37  C  2 ZZ    0.002014   0.045711  -0.010103   0.015835   0.002976
   38  C  2 XY   -0.001392   0.003177   0.000702  -0.006699   0.026745
   39  C  2 XZ   -0.000583   0.000211   0.001149   0.003001  -0.032811
   40  C  2 YZ   -0.030931   0.006660   0.009957  -0.013440  -0.000616
   41  C  2  S   -4.164247   5.274517   5.799774  15.513329   2.710964
   42  C  2  X   -0.131396   0.043887   0.043973  -0.005104  -0.392222
   43  C  2  Y   -0.224456   0.460803   0.965769  -1.200398  -0.173514
   44  C  2  Z    0.342070  -0.712288  -0.707790  -3.803811  -0.671271
   45  C  2 XX    0.216809  -0.328369  -0.024566  -0.381980  -0.065723
   46  C  2 YY    0.332393  -0.519776   1.471332  -0.950846  -0.147577
   47  C  2 ZZ   -0.549202   0.848144  -1.446765   1.332825   0.213300
   48  C  2 XY   -0.234837   0.034824   0.045974  -0.045282   0.046919
   49  C  2 XZ   -0.180090   0.038647  -0.060824  -0.210018   1.886208
   50  C  2 YZ   -0.931029   0.230527  -0.330673   0.998287   0.100191
   51  H  3  S   -0.180538  -0.026931   0.047265  -0.152176  -0.018538
   52  H  3  S    2.316930  -3.845882  -7.317426  -2.843926  -0.419915
   53  H  3  X   -0.005885   0.001474  -0.000252  -0.001315  -0.002186
[...]
 II,JST,KST,LST =  2  1  1  1 NREC =         1 INTLOC =    1
 II,JST,KST,LST =  3  1  1  1 NREC =         1 INTLOC =    1
 II,JST,KST,LST =  4  1  1  1 NREC =         1 INTLOC =    1
 II,JST,KST,LST =  5  1  1  1 NREC =         1 INTLOC =    1
 II,JST,KST,LST =  6  1  1  1 NREC =         1 INTLOC =    1
 II,JST,KST,LST =  7  1  1  1 NREC =         1 INTLOC =    4
 II,JST,KST,LST =  8  1  1  1 NREC =         1 INTLOC =   49
 II,JST,KST,LST =  9  1  1  1 NREC =         1 INTLOC =   49
 II,JST,KST,LST = 10  1  1  1 NREC =         1 INTLOC =  133
 II,JST,KST,LST = 11  1  1  1 NREC =         1 INTLOC =  395
 II,JST,KST,LST = 12  1  1  1 NREC =         1 INTLOC =  395
 II,JST,KST,LST = 13  1  1  1 NREC =         1 INTLOC =  395
 II,JST,KST,LST = 14  1  1  1 NREC =         1 INTLOC =  395
 II,JST,KST,LST = 15  1  1  1 NREC =         1 INTLOC = 1376
 II,JST,KST,LST = 16  1  1  1 NREC =         1 INTLOC = 3964
 II,JST,KST,LST = 17  1  1  1 NREC =         1 INTLOC = 3964
 II,JST,KST,LST = 18  1  1  1 NREC =         1 INTLOC = 7506
 II,JST,KST,LST = 19  1  1  1 NREC =         1 INTLOC = 9594
 II,JST,KST,LST = 20  1  1  1 NREC =         3 INTLOC = 1445
 II,JST,KST,LST = 21  1  1  1 NREC =         3 INTLOC = 1445
 II,JST,KST,LST = 22  1  1  1 NREC =         3 INTLOC = 1445
 II,JST,KST,LST = 23  1  1  1 NREC =         3 INTLOC = 1445
 II,JST,KST,LST = 24  1  1  1 NREC =         4 INTLOC =10907
 II,JST,KST,LST = 25  1  1  1 NREC =         4 INTLOC =10907
 II,JST,KST,LST = 26  1  1  1 NREC =         5 INTLOC = 5328
 II,JST,KST,LST = 27  1  1  1 NREC =         5 INTLOC = 8568
 II,JST,KST,LST = 28  1  1  1 NREC =         6 INTLOC = 8096
 II,JST,KST,LST = 29  1  1  1 NREC =         7 INTLOC =14102
 II,JST,KST,LST = 30  1  1  1 NREC =         9 INTLOC = 4291
 II,JST,KST,LST = 31  1  1  1 NREC =        10 INTLOC = 4344
 II,JST,KST,LST = 32  1  1  1 NREC =        13 INTLOC = 9692
 II,JST,KST,LST = 33  1  1  1 NREC =        13 INTLOC = 9692
 II,JST,KST,LST = 34  1  1  1 NREC =        18 INTLOC = 2477
 II,JST,KST,LST = 35  1  1  1 NREC =        19 INTLOC =12683
 II,JST,KST,LST = 36  1  1  1 NREC =        19 INTLOC =12683
 II,JST,KST,LST = 37  1  1  1 NREC =        20 INTLOC =13018
 II,JST,KST,LST = 38  1  1  1 NREC =        26 INTLOC = 2549
 II,JST,KST,LST = 39  1  1  1 NREC =        30 INTLOC =12777
 II,JST,KST,LST = 40  1  1  1 NREC =        30 INTLOC =12777
 II,JST,KST,LST = 41  1  1  1 NREC =        32 INTLOC = 8839
 II,JST,KST,LST = 42  1  1  1 NREC =        35 INTLOC = 9591
 II,JST,KST,LST = 43  1  1  1 NREC =        50 INTLOC = 2998
 II,JST,KST,LST = 44  1  1  1 NREC =        50 INTLOC = 2998
 II,JST,KST,LST = 45  1  1  1 NREC =        52 INTLOC = 3476
 II,JST,KST,LST = 46  1  1  1 NREC =        52 INTLOC =12180
 II,JST,KST,LST = 47  1  1  1 NREC =        60 INTLOC =12706
 II,JST,KST,LST = 48  1  1  1 NREC =        73 INTLOC = 7931
 II,JST,KST,LST = 49  1  1  1 NREC =        73 INTLOC = 7931
 II,JST,KST,LST = 50  1  1  1 NREC =        79 INTLOC = 4740
 II,JST,KST,LST = 51  1  1  1 NREC =        87 INTLOC = 7908
 II,JST,KST,LST = 52  1  1  1 NREC =       105 INTLOC =13150
 II,JST,KST,LST = 53  1  1  1 NREC =       109 INTLOC = 1320
 II,JST,KST,LST = 54  1  1  1 NREC =       116 INTLOC = 2697
 II,JST,KST,LST = 55  1  1  1 NREC =       129 INTLOC =13100
 II,JST,KST,LST = 56  1  1  1 NREC =       135 INTLOC =11911
 II,JST,KST,LST = 57  1  1  1 NREC =       147 INTLOC =10438
 II,JST,KST,LST = 58  1  1  1 NREC =       154 INTLOC = 2450
 II,JST,KST,LST = 59  1  1  1 NREC =       160 INTLOC = 4189
 II,JST,KST,LST = 60  1  1  1 NREC =       182 INTLOC =14664
 II,JST,KST,LST = 61  1  1  1 NREC =       184 INTLOC =11033
 II,JST,KST,LST = 62  1  1  1 NREC =       200 INTLOC = 4588
 II,JST,KST,LST = 63  1  1  1 NREC =       206 INTLOC = 5768
 II,JST,KST,LST = 64  1  1  1 NREC =       214 INTLOC = 5425
 II,JST,KST,LST = 65  1  1  1 NREC =       240 INTLOC = 5954
 II,JST,KST,LST = 66  1  1  1 NREC =       245 INTLOC =12370
 SCHWARZ INEQUALITY TEST SKIPPED       73274 INTEGRAL BLOCKS.
 TOTAL NUMBER OF NONZERO TWO-ELECTRON INTEGRALS =            65777186
       4394 INTEGRAL RECORDS WERE STORED ON DISK FILE  8.
  ...... END OF TWO-ELECTRON INTEGRALS .....
 CPU     0: STEP CPU TIME=     0.26 TOTAL CPU TIME=         24.8 (      0.4 MIN)
 TOTAL WALL CLOCK TIME=         25.7 SECONDS, CPU UTILIZATION IS    96.49%

          ---------------------------------------------
          MONOMER ELECTROSTATIC INTERACTION (OWN BASIS)
          ---------------------------------------------

          -------------
          GUESS OPTIONS
          -------------
          GUESS =MOSAVED           NORB  =       0          NORDER=       0
          MIX   =       F          PRTMO =       F          PUNMO =       F
          TOLZ  = 1.0E-08          TOLE  = 1.0E-05
          SYMDEN=       F          PURIFY=       F

 INITIAL GUESS ORBITALS GENERATED BY MOSAVED  ROUTINE.

 STATISTICS FOR GENERATION OF SYMMETRY ORBITAL -Q- MATRIX
 NUMBER OF CARTESIAN ATOMIC ORBITALS=        154
 NUMBER OF SPHERICAL CONTAMINANTS DROPPED=     8
 NUMBER OF LINEARLY DEPENDENT MOS DROPPED=     0
 TOTAL NUMBER OF MOS IN VARIATION SPACE=     146
 ...... END OF INITIAL ORBITAL SELECTION ......
 CPU     0: STEP CPU TIME=     0.01 TOTAL CPU TIME=         24.8 (      0.4 MIN)
 TOTAL WALL CLOCK TIME=         25.7 SECONDS, CPU UTILIZATION IS    96.49%

          ---------------------------
                  UHF SCF CALCULATION
          ---------------------------

 FINAL UHF ENERGY IS     -155.3134196188 AFTER   1 ITERATIONS
 ...... END OF UHF CALCULATION ......
 CPU     0: STEP CPU TIME=     0.08 TOTAL CPU TIME=         24.8 (      0.4 MIN)
 TOTAL WALL CLOCK TIME=         25.7 SECONDS, CPU UTILIZATION IS    96.46%

          -------------
          GUESS OPTIONS
          -------------
          GUESS =MOSAVED           NORB  =       0          NORDER=       0
          MIX   =       F          PRTMO =       F          PUNMO =       F
          TOLZ  = 1.0E-08          TOLE  = 1.0E-05
          SYMDEN=       F          PURIFY=       F

 INITIAL GUESS ORBITALS GENERATED BY MOSAVED  ROUTINE.

 STATISTICS FOR GENERATION OF SYMMETRY ORBITAL -Q- MATRIX
 NUMBER OF CARTESIAN ATOMIC ORBITALS=        154
 NUMBER OF SPHERICAL CONTAMINANTS DROPPED=     8
 NUMBER OF LINEARLY DEPENDENT MOS DROPPED=     0
 TOTAL NUMBER OF MOS IN VARIATION SPACE=     146
 ...... END OF INITIAL ORBITAL SELECTION ......
 CPU     0: STEP CPU TIME=     0.01 TOTAL CPU TIME=         24.8 (      0.4 MIN)
 TOTAL WALL CLOCK TIME=         25.8 SECONDS, CPU UTILIZATION IS    96.46%

          ---------------------------
                  UHF SCF CALCULATION
          ---------------------------

 DIRECT SCF CALCULATION, SCHWRZ=T   FDIFF=T
 SCHWARZ INEQUALITY OVERHEAD:     11926 INTEGRALS, T=        0.00

 FINAL UHF ENERGY IS     -331.0440254953 AFTER   1 ITERATIONS
 ...... END OF UHF CALCULATION ......
 CPU     0: STEP CPU TIME=     0.26 TOTAL CPU TIME=         25.1 (      0.4 MIN)
 TOTAL WALL CLOCK TIME=         26.0 SECONDS, CPU UTILIZATION IS    96.45%

 XEDA STEP ENERGY SUMMATION
 ETOT =       -155.31341962     ENUC =        102.33118709
 EEXCH=        -22.95077424

          --------------------------------------------------
          MONOMER EXCHANGE-REPULSION INTERACTION (OWN BASIS)
          --------------------------------------------------

          -------------
          GUESS OPTIONS
          -------------
          GUESS =MOSAVED           NORB  =       0          NORDER=       0
          MIX   =       F          PRTMO =       F          PUNMO =       F
          TOLZ  = 1.0E-08          TOLE  = 1.0E-05
          SYMDEN=       F          PURIFY=       F

 INITIAL GUESS ORBITALS GENERATED BY MOSAVED  ROUTINE.

 STATISTICS FOR GENERATION OF SYMMETRY ORBITAL -Q- MATRIX
 NUMBER OF CARTESIAN ATOMIC ORBITALS=        154
 NUMBER OF SPHERICAL CONTAMINANTS DROPPED=     8
 NUMBER OF LINEARLY DEPENDENT MOS DROPPED=     0
 TOTAL NUMBER OF MOS IN VARIATION SPACE=     146
 ...... END OF INITIAL ORBITAL SELECTION ......
 CPU     0: STEP CPU TIME=     0.01 TOTAL CPU TIME=         25.1 (      0.4 MIN)
 TOTAL WALL CLOCK TIME=         26.0 SECONDS, CPU UTILIZATION IS    96.46%

          ---------------------------
                  UHF SCF CALCULATION
          ---------------------------

 FINAL UHF ENERGY IS     -154.6233578024 AFTER   1 ITERATIONS
 ...... END OF UHF CALCULATION ......
 CPU     0: STEP CPU TIME=     0.07 TOTAL CPU TIME=         25.2 (      0.4 MIN)
 TOTAL WALL CLOCK TIME=         26.1 SECONDS, CPU UTILIZATION IS    96.43%

 XEDA STEP ENERGY SUMMATION
 ETOT =       -154.62335780     ENUC =        102.33118709

          ---------------------------------------------
          MONOMER ELECTROSTATIC INTERACTION (ALL BASIS)
          ---------------------------------------------

          -------------
          GUESS OPTIONS
          -------------
          GUESS =MOSAVED           NORB  =       0          NORDER=       0
          MIX   =       F          PRTMO =       F          PUNMO =       F
          TOLZ  = 1.0E-08          TOLE  = 1.0E-05
          SYMDEN=       F          PURIFY=       F

 INITIAL GUESS ORBITALS GENERATED BY MOSAVED  ROUTINE.

 STATISTICS FOR GENERATION OF SYMMETRY ORBITAL -Q- MATRIX
 NUMBER OF CARTESIAN ATOMIC ORBITALS=        154
 NUMBER OF SPHERICAL CONTAMINANTS DROPPED=     8
 NUMBER OF LINEARLY DEPENDENT MOS DROPPED=     0
 TOTAL NUMBER OF MOS IN VARIATION SPACE=     146
 ...... END OF INITIAL ORBITAL SELECTION ......
 CPU     0: STEP CPU TIME=     0.01 TOTAL CPU TIME=         25.2 (      0.4 MIN)
 TOTAL WALL CLOCK TIME=         26.1 SECONDS, CPU UTILIZATION IS    96.43%

          ---------------------------
                  UHF SCF CALCULATION
          ---------------------------

 FINAL UHF ENERGY IS     -155.3192104905 AFTER   1 ITERATIONS
 ...... END OF UHF CALCULATION ......
 CPU     0: STEP CPU TIME=     0.07 TOTAL CPU TIME=         25.3 (      0.4 MIN)
 TOTAL WALL CLOCK TIME=         26.2 SECONDS, CPU UTILIZATION IS    96.40%

          -------------
          GUESS OPTIONS
          -------------
          GUESS =MOSAVED           NORB  =       0          NORDER=       0
          MIX   =       F          PRTMO =       F          PUNMO =       F
          TOLZ  = 1.0E-08          TOLE  = 1.0E-05
          SYMDEN=       F          PURIFY=       F

 INITIAL GUESS ORBITALS GENERATED BY MOSAVED  ROUTINE.

 STATISTICS FOR GENERATION OF SYMMETRY ORBITAL -Q- MATRIX
 NUMBER OF CARTESIAN ATOMIC ORBITALS=        154
 NUMBER OF SPHERICAL CONTAMINANTS DROPPED=     8
 NUMBER OF LINEARLY DEPENDENT MOS DROPPED=     0
 TOTAL NUMBER OF MOS IN VARIATION SPACE=     146
 ...... END OF INITIAL ORBITAL SELECTION ......
 CPU     0: STEP CPU TIME=     0.01 TOTAL CPU TIME=         25.3 (      0.4 MIN)
 TOTAL WALL CLOCK TIME=         26.2 SECONDS, CPU UTILIZATION IS    96.40%

          ---------------------------
                  UHF SCF CALCULATION
          ---------------------------

 DIRECT SCF CALCULATION, SCHWRZ=T   FDIFF=T
 SCHWARZ INEQUALITY OVERHEAD:     11926 INTEGRALS, T=        0.00

 FINAL UHF ENERGY IS     -331.0664407285 AFTER   1 ITERATIONS
 ...... END OF UHF CALCULATION ......
 CPU     0: STEP CPU TIME=     0.27 TOTAL CPU TIME=         25.5 (      0.4 MIN)
 TOTAL WALL CLOCK TIME=         26.5 SECONDS, CPU UTILIZATION IS    96.42%

 XEDA STEP ENERGY SUMMATION
 ETOT =       -155.31921049     ENUC =        102.33118709
 EEXCH=        -22.95114721

          --------------------------------------------------
          MONOMER EXCHANGE-REPULSION INTERACTION (ALL BASIS)
          --------------------------------------------------

          -------------
          GUESS OPTIONS
          -------------
          GUESS =MOSAVED           NORB  =       0          NORDER=       0
          MIX   =       F          PRTMO =       F          PUNMO =       F
          TOLZ  = 1.0E-08          TOLE  = 1.0E-05
          SYMDEN=       F          PURIFY=       F

 INITIAL GUESS ORBITALS GENERATED BY MOSAVED  ROUTINE.

 STATISTICS FOR GENERATION OF SYMMETRY ORBITAL -Q- MATRIX
 NUMBER OF CARTESIAN ATOMIC ORBITALS=        154
 NUMBER OF SPHERICAL CONTAMINANTS DROPPED=     8
 NUMBER OF LINEARLY DEPENDENT MOS DROPPED=     0
 TOTAL NUMBER OF MOS IN VARIATION SPACE=     146
 ...... END OF INITIAL ORBITAL SELECTION ......
 CPU     0: STEP CPU TIME=     0.01 TOTAL CPU TIME=         25.5 (      0.4 MIN)
 TOTAL WALL CLOCK TIME=         26.5 SECONDS, CPU UTILIZATION IS    96.42%

          ---------------------------
                  UHF SCF CALCULATION
          ---------------------------

 FINAL UHF ENERGY IS     -154.6283870624 AFTER   1 ITERATIONS
 ...... END OF UHF CALCULATION ......
 CPU     0: STEP CPU TIME=     0.07 TOTAL CPU TIME=         25.6 (      0.4 MIN)
 TOTAL WALL CLOCK TIME=         26.6 SECONDS, CPU UTILIZATION IS    96.39%

 XEDA STEP ENERGY SUMMATION
 ETOT =       -154.62838706     ENUC =        102.33118709

          --------------------------------
          RESULTS OF INTERACTION ANALYSIS
          --------------------------------

     ENERGY TERMS
     T   ELECTRON KINETIC AND COULOMB POTENTIAL
     X   E-E EXCHANGE COMBINE WITH DIAGNANAL VALUE
     N   NUCLEUS-NUCLEUS REPULSION ENERGY

 --------------
 MONOMER ENERGY
 --------------

 MONOMER    1

                   OWN BASIS           ALL BASIS

 T              -93.91769291        -93.91779886
 X              -11.31190641        -11.31236183
 N               27.85209666         27.85209666
 EC              -0.47438896         -0.47497980
 E              -77.85189162        -77.85304383

 MONOMER    2

                   OWN BASIS           ALL BASIS

 T              -93.91763214        -93.91772246
 X              -11.31190108        -11.31236643
 N               27.85203053         27.85203053
 EC              -0.47439487         -0.47498160
 E              -77.85189756        -77.85303997

 ------------------------------------------------------------
 SUPER MOLECULE ENERGY  USING NON-ANTISYMMETRIC WAVEFUNCTION
 (ELECTROSTATIC ENERGY: T N CHANGE)
 ------------------------------------------------------------

              FROM OWN BASIS      FROM ALL BASIS
 T             -234.69383247       -234.69925037
 X              -22.62380749        -22.62472826
 N              102.33118709        102.33118709
 E             -154.98645287       -154.99279154

 ----------------------------------------------------------------------
 SUPER MOLECULE ENERGY  USING ANTISYMMETRIC NONORTHONORMAL WAVEFUNCTION
 (EXCHANGE ENERGY: ONLY X CHANGES)
 ----------------------------------------------------------------------

              FROM OWN BASIS      FROM ALL BASIS
 T             -234.69383247       -234.69925037
 X              -22.95077424        -22.95114721
 N              102.33118709        102.33118709
 E             -155.31341962       -155.31921049

 -----------------------------------------------------------------------
 SUPER MOLECULE ENERGY  USING ANTISYMMETRIC AND ORTHONORMAL WAVEFUNCTION
 (REPULSION ENERGY: T X CHANGE)
 -----------------------------------------------------------------------

              FROM OWN BASIS      FROM ALL BASIS
 T+X           -256.95454489       -256.95957415
 N              102.33118709        102.33118709
 E             -154.62335780       -154.62838706

 ---------------------------------------------
 SUPER MOLECULE ENERGY  USING SCF WAVEFUNCTION
 (POLARIZATION ENERGY: T X CHANGE)
 ---------------------------------------------
 T+X           -257.24471066
 N              102.33118709
 EC              -0.98681478
 E             -155.90033835


                   *******************************
                   SUMMARY OF INTERACTION ENERGIES
                     XEDA IN XIAMEN UNIVERSITY    
                    - ZHEN TANG AND PEIFENG SU -  
                   *******************************


 -------------
 OWN BASIS SET                                       HARTREE          KCAL/MOL
 -------------
 ELECTROSTATIC ENERGY                  ES=         -0.231448           -145.24
 EXCHANGE ENERGY                       EX=         -0.326967           -205.17
 REPULSION ENERGY                     REP=          0.690062            433.02
 POLARIZATION ENERGY                  POL=         -0.290166           -182.08
 ELECTRON CORRELATION                CORR=         -0.038031            -23.86
 TOTAL INTERACTION ENERGY               E=         -0.196549           -123.34
  

 -------------
 ALL BASIS SET                                       HARTREE          KCAL/MOL
 -------------
 ELECTROSTATIC ENERGY                  ES=         -0.236669           -148.51
 EXCHANGE ENERGY                       EX=         -0.326419           -204.83
 REPULSION ENERGY                     REP=          0.690823            433.50
 POLARIZATION ENERGY                  POL=         -0.285137           -178.93
 ELECTRON CORRELATION                CORR=         -0.036853            -23.13
 TOTAL INTERACTION ENERGY               E=         -0.194255           -121.90
  

                     ***************************
                     END OF INTERACTION ANALYSIS
                     ***************************

              1301896  WORDS OF DYNAMIC MEMORY USED
 EXECUTION OF GAMESS TERMINATED NORMALLY 14:31:54 25-DEC-2023    
 DDI: 263640 bytes (0.3 MB / 0 MWords) used by master data server.

 ----------------------------------------
 CPU timing information for all processes
 ========================================
 0: 24.879 + 0.748 = 25.627
 1: 24.700 + 0.541 = 25.242
 2: 24.756 + 0.630 = 25.387
 3: 24.695 + 0.565 = 25.261
 4: 24.776 + 0.631 = 25.408
 5: 24.693 + 0.603 = 25.297
 6: 24.755 + 0.604 = 25.359
 7: 24.670 + 0.524 = 25.194
 8: 24.769 + 0.599 = 25.368
 9: 24.647 + 0.581 = 25.228
 10: 24.690 + 0.578 = 25.269
 11: 24.577 + 0.577 = 25.154
 12: 24.742 + 0.561 = 25.304
 13: 24.656 + 0.560 = 25.217
 14: 24.676 + 0.619 = 25.296
 15: 24.664 + 0.539 = 25.203
 ----------------------------------------
 ddikick.x: exited gracefully.
----- accounting info -----
Files used on the master node w012 were:
-rw-r--r-- 1 xacs0647 10000  2703863 Dec 25 14:31 /job_dir/25_1685749/25.dat
-rw-r--r-- 1 xacs0647 10000      243 Dec 25 14:31 /job_dir/25_1685749/25.err
-rw-r--r-- 1 xacs0647 10000      837 Dec 25 14:31 /job_dir/25_1685749/25.F05
-rw-r--r-- 1 xacs0647 10000 47884256 Dec 25 14:31 /job_dir/25_1685749/25.F08
-rw-r--r-- 1 xacs0647 10000 44103920 Dec 25 14:31 /job_dir/25_1685749/25.F08.001
-rw-r--r-- 1 xacs0647 10000 52384656 Dec 25 14:31 /job_dir/25_1685749/25.F08.002
-rw-r--r-- 1 xacs0647 10000 50764512 Dec 25 14:31 /job_dir/25_1685749/25.F08.003
-rw-r--r-- 1 xacs0647 10000 50044448 Dec 25 14:31 /job_dir/25_1685749/25.F08.004
-rw-r--r-- 1 xacs0647 10000 47524224 Dec 25 14:31 /job_dir/25_1685749/25.F08.005
-rw-r--r-- 1 xacs0647 10000 54364832 Dec 25 14:31 /job_dir/25_1685749/25.F08.006
-rw-r--r-- 1 xacs0647 10000 45364032 Dec 25 14:31 /job_dir/25_1685749/25.F08.007
-rw-r--r-- 1 xacs0647 10000 48964352 Dec 25 14:31 /job_dir/25_1685749/25.F08.008
-rw-r--r-- 1 xacs0647 10000 48424304 Dec 25 14:31 /job_dir/25_1685749/25.F08.009
-rw-r--r-- 1 xacs0647 10000 50764512 Dec 25 14:31 /job_dir/25_1685749/25.F08.010
-rw-r--r-- 1 xacs0647 10000 45724064 Dec 25 14:31 /job_dir/25_1685749/25.F08.011
-rw-r--r-- 1 xacs0647 10000 47524224 Dec 25 14:31 /job_dir/25_1685749/25.F08.012
-rw-r--r-- 1 xacs0647 10000 54184816 Dec 25 14:31 /job_dir/25_1685749/25.F08.013
-rw-r--r-- 1 xacs0647 10000 55444928 Dec 25 14:31 /job_dir/25_1685749/25.F08.014
-rw-r--r-- 1 xacs0647 10000 47524224 Dec 25 14:31 /job_dir/25_1685749/25.F08.015
-rw-r--r-- 1 xacs0647 10000  5758720 Dec 25 14:31 /job_dir/25_1685749/25.F10
-rw-r--r-- 1 xacs0647 10000      837 Dec 25 14:31 /job_dir/25_1685749/25.inp
-rw-r--r-- 1 xacs0647 10000  2403617 Dec 25 14:31 /job_dir/25_1685749/25.out
Mon Dec 25 14:31:57 CST 2023
0.092u 0.057s 0:29.75 0.4%	0+0k 0+32io 0pf+0w
