----- GAMESS execution script 'rungms' -----
This job is running on host w015
under operating system Linux at Mon Dec 25 14:31:28 CST 2023
Available scratch disk space (Kbyte units) at beginning of the job is
Filesystem              1K-blocks    Used Available Use% Mounted on
/dev/mapper/system-root 932514944 2664236 929850708   1% /
GAMESS temporary binary files will be written to /job_dir/26_1685750
GAMESS supplementary output files will be written to /job_dir/26_1685750
Copying input file ./26.inp to your run's scratch directory...
 
Assuming a single but multicore node.
 

 Distributed Data Interface kickoff program.
 Initiating 16 compute processes on 1 nodes to run the following command:
 /share/apps/xeda-apps/xeda-td/gamess.00.x 26 

          *******************************************************
          *                                                     *
          *          GAMESS VERSION = 30 SEP 2020 (R2)          *
          *                                                     *
          *              doi.org/10.1063/5.0005188              *
          *                                                     *
          **************** 64 BIT LINUX VERSION *****************

  GAMESS HAS BEEN MADE POSSIBLE WITH IMPORTANT CONTRIBUTIONS FROM
  THE FOLLOWING INDIVIDUALS (IN ALPHABETICAL ORDER):

     IVANA ADAMOVIC, CHRISTINE AIKENS, TOMOKO AKAMA,
     YURI ALEXEEV, YURIKO AOKI, POOJA ARORA, TOSHIO ASADA,
     ANDREY ASADCHEV, KIM K. BALDRIDGE, PRADIPTA BANDYOPADHYAY,
     MARIA BARYSZ, ROB BELL, JONATHAN BENTZ, COLLEEN BERTONI,
     JERRY A. BOATZ, BRETT BODE, KURT BRORSEN, KURT R. BRORSEN,
     LAIMUTIS BYTAUTAS, CALEB CARLIN, LAURA CARRINGTON,
     GALINA CHABAN, BENOIT CHAMPAGNE, WEI CHEN, MAHITO CHIBA,
     DAN CHIPMAN, CHEOL HO CHOI, TANNER CULPITT,
     DIPAYAN DATTA, PAUL DAY, ALBERT DEFUSCO,
     NUWAN DESILVA, J. EMILIANO DEUSTUA,
     TIM DUDLEY, MICHEL DUPUIS, STEVEN T. ELBERT,
     DMITRI FEDOROV, ALEX FINDLATER, GRAHAM FLETCHER,
     MARK FREITAG, CHRISTIAN FRIEDL, DAVID GARMER,
     IGOR S. GERASIMOV, KURT GLAESEMANN, MARK S. GORDON,
     JEFFREY GOUR, FENG LONG GU, EMILIE B. GUIDEZ,
     ANASTASIA GUNINA, SHARON HAMMES-SCHIFFER, MASATAKE HARUTA,
     KIMIHIKO HIRAO, YASUHIRO IKABATA, TZVETELIN IORDANOV,
     STEPHAN IRLE, KAZUYA ISHIMURA, JOE IVANIC, FRANK JENSEN,
     JAN H. JENSEN, VISVALDAS KAIRYS, MUNEAKI KAMIYA,
     MICHIO KATOUDA, NAOAKI KAWAKAMI, DAN KEMP, BERNARD KIRTMAN,
     KAZUO KITAURA, MARIUSZ KLOBUKOWSKI, MASATO KOBAYASHI,
     PRAKASHAN KORAMBATH, JACEK KORCHOWIEC, SHIRO KOSEKI,
     KAROL KOWALSKI, JIMMY KROMANN, STANISLAW KUCHARSKI,
     HENRY KURTZ, SAROM SOK LEANG, HUI LI, SHUHUA LI, WEI LI,
     JESSE LUTZ, ALEKSANDR O. LYKHIN, MARCIN MAKOWSKI,
     JOANI MATO, NIKITA MATSUNAGA, BENEDETTA MENNUCCI,
     GRANT MERRILL, NORIYUKI MINEZAWA, VLADIMIR MIRONOV,
     EISAKU MIYOSHI, JOHN A. MONTGOMERY JR., HIROTOSHI MORI,
     JONATHAN MULLIN, MONIKA MUSIAL, SHIGERU NAGASE,
     TAKESHI NAGATA, HIROMI NAKAI, TAKAHITO NAKAJIMA,
     YUYA NAKAJIMA, HARUYUKI NAKANO, HIROYA NAKATA, SEAN NEDD,
     HEATHER NETZLOFF, KIET A. NGUYEN, YOSHIO NISHIMOTO,
     BOSILJKA NJEGIC, RYAN OLSON, MIKE PAK, ROBERTO PEVERATI,
     BUU PHAM, PIOTR PIECUCH, ANNA POMOGAEVA, DAVID POOLE,
     SPENCER PRUITT, OLIVIER QUINET, LUKE ROSKOP,
     KLAUS RUEDENBERG, ANDREW SAND, TOSAPORN SATTASATHUCHANA,
     NOZOMI SAWADA, MICHAEL W. SCHMIDT, PATRICK E. SCHNEIDER,
     JUNJI SEINO, PRACHI SHARMA, JUN SHEN, JIM SHOEMAKER,
     YINAN SHU, DEJUN SI, JONATHAN SKONE, LYUDMILA SLIPCHENKO,
     TONY SMITH, JIE SONG, MARK SPACKMAN, CASPER STEINMANN,
     WALT STEVENS, PEIFENG SU, SHUJUN SU, CHET SWALINA,
     TETSUYA TAKETSUGU, ZHEN TAO, NANDUN THELLAMUREGE
     SEIKEN TOKURA, JACOPO TOMASI, TSUGUKI TOUMA, TAKAO TSUNEDA,
     HIROAKI UMEDA, JORGE LUIS GALVEZ VALLEJO, YALI WANG,
     SIMON WEBB, AARON WEST, THERESA L. WINDUS, MARTA WLOCH,
     PENG XU, KIYOSHI YAGI, SUSUMU YANAGISAWA, YANG YANG,
     SOOHAENG YOO, TAKESHI YOSHIKAWA, FEDERICO ZAHARIEV,
     TOBY ZENG

  WHO ARE SUPPORTED BY THEIR INSTITUTION/UNIVERSITY/COMPANY/GROUP
  (IN ALPHABETICAL ORDER):

     EP ANALYTICS, FACULTES UNIVERSITAIRES NOTRE-DAME DE LA PAIX,
     INSTITUTE FOR MOLECULAR SCIENCE, IOWA STATE UNIVERSITY,
     JACKSON STATE UNIVERSITY, JOHANNES KEPLER UNIVERSITY LINZ,
     KYUSHU UNIVERSITY, MICHIGAN STATE UNIVERSITY,
     MIE UNIVERSITY, MOSCOW STATE UNIVERSITY,
     N. COPERNICUS UNIVERSITY, NAGOYA UNIVERSITY,
     NANJING UNIVERSITY, NAT. INST. OF ADVANCED INDUSTRIAL
     SCIENCE AND TECHNOLOGY, NATIONAL INST. OF STANDARDS AND
     TECHNOLOGY, NESMEYANOV INSTITUTE OF ORGANOELEMENT COMPOUNDS
     OF RUSSIAN ACADEMY OF SCIENCES, OSAKA PREFECTURE UNIVERSITY,
     PENNSYLVANIA STATE UNIVERSITY, TOKYO INSTITUTE OF TECHNOLOGY,
     UNIVERSITY OF AARHUS, UNIVERSITY OF ALBERTA,
     UNIVERSITY OF CALIFORNIA AT SANTA BARBARA,
     UNIVERSITY OF COPENHAGEN, UNIVERSITY OF IOWA,
     UNIVERSITY OF MEMPHIS, UNIVERSITY OF MINNESOTA,
     UNIVERSITY OF NEBRASKA, UNIVERSITY OF NEW ENGLAND,
     UNIVERSITY OF NOTRE DAME, UNIVERSITY OF PISA,
     UNIVERSITY OF SILESIA, UNIVERSITY OF TOKYO,
     UNIVERSITY OF ZURICH, WASEDA UNIVERSITY, YALE UNIVERSITY

  GAMESS SOFTWARE MANAGEMENT TEAM FOR THIS RELEASE:
     MARK S. GORDON (TEAM LEAD),
     BRETT BODE (SENIOR ADVISOR),
     GIUSEPPE BARCA,
     COLLEEN BERTONI,
     KRISTOPHER KEIPERT (ADVISOR),
     SAROM S. LEANG (DEVELOPMENT LEAD),
     BUU PHAM,
     JORGE LUIS GALVEZ VALLEJO (WEBSITE ADMINISTRATOR),
     PENG XU


 PARALLEL VERSION RUNNING ON       16 PROCESSORS IN        1 NODES.

 EXECUTION OF GAMESS BEGUN 14:31:28 25-DEC-2023    

            ECHO OF THE FIRST FEW INPUT CARDS -
 INPUT CARD> $CONTRL SCFTYP=UHF RUNTYP=EDA dfttyp=B3LYP ispher=1 icharg=0 mult=1 $END       
 INPUT CARD> $SYSTEM  mwords=150 memddi=150 $END                                            
 INPUT CARD> $BASIS gbasis=accd $END                                                        
 INPUT CARD> $LMOEDA MATOM(1)=5 5 MCHARG(1)=0 0 MMULT(1)=2 -2 edatyp=gks $end               
 INPUT CARD> $scf DIIS=.TRUE. ETHRSH=2.0 SWDIIS=0.005 $end                                  
 INPUT CARD> $data                                                                          
 INPUT CARD> EDA calculation with XEDA 1.0                                                  
 INPUT CARD> c1                                                                             
 INPUT CARD>C   6   -0.0515800974    0.6161071667   -1.7691615851                           
 INPUT CARD>C   6   -0.0515800974    0.6161071667   -0.4109092358                           
 INPUT CARD>H   1   -0.0199240565    1.5707696211    0.1304243333                           
 INPUT CARD>H   1   -0.0758412292   -0.3142543354   -2.3455892237                           
 INPUT CARD>H   1   -0.0329426250    1.5422466674   -2.3473040763                           
 INPUT CARD>C   6   -0.0515800974   -0.6112959946    0.4183738549                           
 INPUT CARD>C   6    0.1438962312   -0.6204358210    1.7624659817                           
 INPUT CARD>H   1    0.2933769394    0.3040624311    2.3293857241                           
 INPUT CARD>H   1    0.1555225018   -1.5477850325    2.3388402712                           
 INPUT CARD>H   1   -0.1910731539   -1.5607846086   -0.1149135665                           
 INPUT CARD> $end                                                                           
  150000000 WORDS OF MEMORY AVAILABLE

     BASIS OPTIONS
     -------------
     GBASIS=ACCD         IGAUSS=       0      POLAR=NONE    
     NDFUNC=       0     NFFUNC=       0     DIFFSP=       F
     NPFUNC=       0      DIFFS=       F     BASNAM=        


     RUN TITLE
     ---------
  EDA calculation with XEDA 1.0                                                  

 THE POINT GROUP OF THE MOLECULE IS C1      
 THE ORDER OF THE PRINCIPAL AXIS IS     0

 ATOM      ATOMIC                      COORDINATES (BOHR)
           CHARGE         X                   Y                   Z
 C           6.0    -0.0974722505        1.1642737241       -3.3432306238
 C           6.0    -0.0974722505        1.1642737241       -0.7765058615
 H           1.0    -0.0376510073        2.9683241737        0.2464662521
 H           1.0    -0.1433191418       -0.5938545844       -4.4325209125
 H           1.0    -0.0622525346        2.9144236069       -4.4357615141
 C           6.0    -0.0974722505       -1.1551819272        0.7906119462
 C           6.0     0.2719244476       -1.1724536947        3.3305777681
 H           1.0     0.5544020266        0.5745946779        4.4019007383
 H           1.0     0.2938949133       -2.9248895993        4.4197672416
 H           1.0    -0.3610759045       -2.9494552361       -0.2171551530

          INTERNUCLEAR DISTANCES (ANGS.)
          ------------------------------

                1 C          2 C          3 H          4 H          5 H     

   1 C       0.0000000    1.3582523 *  2.1262195 *  1.0947283 *  1.0919389 *
   2 C       1.3582523 *  0.0000000    1.0979183 *  2.1468926 *  2.1465569 *
   3 H       2.1262195 *  1.0979183 *  0.0000000    3.1124083    2.4779268 *
   4 H       1.0947283 *  2.1468926 *  3.1124083    0.0000000    1.8569974 *
   5 H       1.0919389 *  2.1465569 *  2.4779268 *  1.8569974 *  0.0000000  
   6 C       2.5083520 *  1.4812930 *  2.2012104 *  2.7799846 *  3.5052914  
   7 C       3.7469511    2.5081486 *  2.7371113 *  4.1253060    4.6474377  
   8 H       4.1248585    2.7794934 *  2.5569779 *  4.7301193    4.8488155  
   9 H       4.6476876    3.5052023    3.8253452    4.8496399    5.6163835  
  10 H       2.7376728 *  2.2013472 *  3.1458091    2.5579347 *  3.8258823  

                6 C          7 C          8 H          9 H         10 H     

   1 C       2.5083520 *  3.7469511    4.1248585    4.6476876    2.7376728 *
   2 C       1.4812930 *  2.5081486 *  2.7794934 *  3.5052023    2.2013472 *
   3 H       2.2012104 *  2.7371113 *  2.5569779 *  3.8253452    3.1458091  
   4 H       2.7799846 *  4.1253060    4.7301193    4.8496399    2.5579347 *
   5 H       3.5052914    4.6474377    4.8488155    5.6163835    3.8258823  
   6 C       0.0000000    1.3582629 *  2.1468216 *  2.1466473 *  1.0978991 *
   7 C       1.3582629 *  0.0000000    1.0947326 *  1.0919336 *  2.1262677 *
   8 H       2.1468216 *  1.0947326 *  0.0000000    1.8569955 *  3.1123858  
   9 H       2.1466473 *  1.0919336 *  1.8569955 *  0.0000000    2.4781456 *
  10 H       1.0978991 *  2.1262677 *  3.1123858    2.4781456 *  0.0000000  

  * ... LESS THAN  3.000


     ATOMIC BASIS SET
     ----------------
 THE CONTRACTED PRIMITIVE FUNCTIONS HAVE BEEN UNNORMALIZED
 THE CONTRACTED BASIS FUNCTIONS ARE NOW NORMALIZED TO UNITY

  SHELL TYPE  PRIMITIVE        EXPONENT          CONTRACTION COEFFICIENT(S)

 C         

      1   S       1          6665.0000000    0.000691583963
      1   S       2          1000.0000000    0.005325796153
      1   S       3           228.0000000    0.027060721042
      1   S       4            64.7100000    0.101656846141
      1   S       5            21.0600000    0.274574823617
      1   S       6             7.4950000    0.448294318924
      1   S       7             2.7970000    0.284902610715
      1   S       8             0.5215000    0.015194859206

      2   S       9          6665.0000000   -0.000293269653
      2   S      10          1000.0000000   -0.002318035474
      2   S      11           228.0000000   -0.011499786039
      2   S      12            64.7100000   -0.046826727010
      2   S      13            21.0600000   -0.128466168750
      2   S      14             7.4950000   -0.301266272463
      2   S      15             2.7970000   -0.255630702330
      2   S      16             0.5215000    1.093793361012

      3   S      17             0.1596000    1.000000000000

      4   P      18             9.4390000    0.056979251590
      4   P      19             2.0020000    0.313207211501
      4   P      20             0.5456000    0.760376741738

      5   P      21             0.1517000    1.000000000000

      6   D      22             0.5500000    1.000000000000

      7   S      23             0.0469000    1.000000000000

      8   P      24             0.0404100    1.000000000000

      9   D      25             0.1510000    1.000000000000

 C         

     10   S      26          6665.0000000    0.000691583963
     10   S      27          1000.0000000    0.005325796153
     10   S      28           228.0000000    0.027060721042
     10   S      29            64.7100000    0.101656846141
     10   S      30            21.0600000    0.274574823617
     10   S      31             7.4950000    0.448294318924
     10   S      32             2.7970000    0.284902610715
     10   S      33             0.5215000    0.015194859206

     11   S      34          6665.0000000   -0.000293269653
     11   S      35          1000.0000000   -0.002318035474
     11   S      36           228.0000000   -0.011499786039
     11   S      37            64.7100000   -0.046826727010
     11   S      38            21.0600000   -0.128466168750
     11   S      39             7.4950000   -0.301266272463
     11   S      40             2.7970000   -0.255630702330
     11   S      41             0.5215000    1.093793361012

     12   S      42             0.1596000    1.000000000000

     13   P      43             9.4390000    0.056979251590
     13   P      44             2.0020000    0.313207211501
     13   P      45             0.5456000    0.760376741738

     14   P      46             0.1517000    1.000000000000

     15   D      47             0.5500000    1.000000000000

     16   S      48             0.0469000    1.000000000000

     17   P      49             0.0404100    1.000000000000

     18   D      50             0.1510000    1.000000000000

 H         

     19   S      51            13.0100000    0.033498726390
     19   S      52             1.9620000    0.234800801174
     19   S      53             0.4446000    0.813682957883

     20   S      54             0.1220000    1.000000000000

     21   P      55             0.7270000    1.000000000000

     22   S      56             0.0297400    1.000000000000

     23   P      57             0.1410000    1.000000000000

 H         

     24   S      58            13.0100000    0.033498726390
     24   S      59             1.9620000    0.234800801174
     24   S      60             0.4446000    0.813682957883

     25   S      61             0.1220000    1.000000000000

     26   P      62             0.7270000    1.000000000000

     27   S      63             0.0297400    1.000000000000

     28   P      64             0.1410000    1.000000000000

 H         

     29   S      65            13.0100000    0.033498726390
     29   S      66             1.9620000    0.234800801174
     29   S      67             0.4446000    0.813682957883

     30   S      68             0.1220000    1.000000000000

     31   P      69             0.7270000    1.000000000000

     32   S      70             0.0297400    1.000000000000

     33   P      71             0.1410000    1.000000000000

 C         

     34   S      72          6665.0000000    0.000691583963
     34   S      73          1000.0000000    0.005325796153
     34   S      74           228.0000000    0.027060721042
     34   S      75            64.7100000    0.101656846141
     34   S      76            21.0600000    0.274574823617
     34   S      77             7.4950000    0.448294318924
     34   S      78             2.7970000    0.284902610715
     34   S      79             0.5215000    0.015194859206

     35   S      80          6665.0000000   -0.000293269653
     35   S      81          1000.0000000   -0.002318035474
     35   S      82           228.0000000   -0.011499786039
     35   S      83            64.7100000   -0.046826727010
     35   S      84            21.0600000   -0.128466168750
     35   S      85             7.4950000   -0.301266272463
     35   S      86             2.7970000   -0.255630702330
     35   S      87             0.5215000    1.093793361012

     36   S      88             0.1596000    1.000000000000

     37   P      89             9.4390000    0.056979251590
     37   P      90             2.0020000    0.313207211501
     37   P      91             0.5456000    0.760376741738

     38   P      92             0.1517000    1.000000000000

     39   D      93             0.5500000    1.000000000000

     40   S      94             0.0469000    1.000000000000

     41   P      95             0.0404100    1.000000000000

     42   D      96             0.1510000    1.000000000000

 C         

     43   S      97          6665.0000000    0.000691583963
     43   S      98          1000.0000000    0.005325796153
     43   S      99           228.0000000    0.027060721042
     43   S     100            64.7100000    0.101656846141
     43   S     101            21.0600000    0.274574823617
     43   S     102             7.4950000    0.448294318924
     43   S     103             2.7970000    0.284902610715
     43   S     104             0.5215000    0.015194859206

     44   S     105          6665.0000000   -0.000293269653
     44   S     106          1000.0000000   -0.002318035474
     44   S     107           228.0000000   -0.011499786039
     44   S     108            64.7100000   -0.046826727010
     44   S     109            21.0600000   -0.128466168750
     44   S     110             7.4950000   -0.301266272463
     44   S     111             2.7970000   -0.255630702330
     44   S     112             0.5215000    1.093793361012

     45   S     113             0.1596000    1.000000000000

     46   P     114             9.4390000    0.056979251590
     46   P     115             2.0020000    0.313207211501
     46   P     116             0.5456000    0.760376741738

     47   P     117             0.1517000    1.000000000000

     48   D     118             0.5500000    1.000000000000

     49   S     119             0.0469000    1.000000000000

     50   P     120             0.0404100    1.000000000000

     51   D     121             0.1510000    1.000000000000

 H         

     52   S     122            13.0100000    0.033498726390
     52   S     123             1.9620000    0.234800801174
     52   S     124             0.4446000    0.813682957883

     53   S     125             0.1220000    1.000000000000

     54   P     126             0.7270000    1.000000000000

     55   S     127             0.0297400    1.000000000000

     56   P     128             0.1410000    1.000000000000

 H         

     57   S     129            13.0100000    0.033498726390
     57   S     130             1.9620000    0.234800801174
     57   S     131             0.4446000    0.813682957883

     58   S     132             0.1220000    1.000000000000

     59   P     133             0.7270000    1.000000000000

     60   S     134             0.0297400    1.000000000000

     61   P     135             0.1410000    1.000000000000

 H         

     62   S     136            13.0100000    0.033498726390
     62   S     137             1.9620000    0.234800801174
     62   S     138             0.4446000    0.813682957883

     63   S     139             0.1220000    1.000000000000

     64   P     140             0.7270000    1.000000000000

     65   S     141             0.0297400    1.000000000000

     66   P     142             0.1410000    1.000000000000

 TOTAL NUMBER OF BASIS SET SHELLS             =   66
 NUMBER OF CARTESIAN GAUSSIAN BASIS FUNCTIONS =  154
 NOTE: THIS RUN WILL RESTRICT THE MO VARIATION SPACE TO SPHERICAL HARMONICS.
 THE NUMBER OF ORBITALS KEPT IN THE VARIATIONAL SPACE WILL BE PRINTED LATER.
 NUMBER OF ELECTRONS                          =   30
 CHARGE OF MOLECULE                           =    0
 SPIN MULTIPLICITY                            =    1
 NUMBER OF OCCUPIED ORBITALS (ALPHA)          =   15
 NUMBER OF OCCUPIED ORBITALS (BETA )          =   15
 TOTAL NUMBER OF ATOMS                        =   10
 THE NUCLEAR REPULSION ENERGY IS      102.3152385231

 SELECTED MURRAY-HANDY-LAMING RADIAL GRID

 LEGACY BECKE'S FUZZY CELL METHOD

 SELECTED ORIGINAL BECKE'S PARTITION FUNCTION

     LEBEDEV GRID-BASED DFT OPTIONS
     ------------------------------
     DFTTYP=B3LYP   
     NRAD  =      96     NLEB  =     302
     NRAD0 =      24     NLEB0 =     110
     SWOFF =    5.00E-03 (PURE SCF -> DFT)
     SWITCH=    3.00E-04 (COARSE -> TIGHT GRID)
     THRESH=    0.00E+00 GTHRE=    1.00E+00

 GRIMME'S EMPIRICAL DISPERSION CORRECTION= F

     $CONTRL OPTIONS
     ---------------
 SCFTYP=UHF          RUNTYP=LMOEDA       EXETYP=RUN     
 MPLEVL=       0     CITYP =NONE         CCTYP =NONE         VBTYP =NONE    
 DFTTYP=B3LYP        TDDFT =NONE    
 MULT  =       1     ICHARG=       0     NZVAR =       0     COORD =UNIQUE  
 PP    =NONE         RELWFN=NONE         LOCAL =NONE         NUMGRD=       F
 ISPHER=       1     NOSYM =       0     MAXIT =      30     UNITS =ANGS    
 PLTORB=       F     MOLPLT=       F     AIMPAC=       F     FRIEND=        
 NPRINT=       7     IREST =       0     GEOM  =INPUT   
 NORMF =       0     NORMP =       0     ITOL  =      20     ICUT  =       9
 INTTYP=BEST         GRDTYP=BEST         QMTTOL= 1.0E-06

     $SYSTEM OPTIONS
     ---------------
  REPLICATED MEMORY=   150000000 WORDS (ON EVERY NODE).
 DISTRIBUTED MEMDDI=         150 MILLION WORDS IN AGGREGATE,
 MEMDDI DISTRIBUTED OVER  16 PROCESSORS IS     9375000 WORDS/PROCESSOR.
 TOTAL MEMORY REQUESTED ON EACH PROCESSOR=   159375000 WORDS.
 TIMLIM=      525600.00 MINUTES, OR     365.0 DAYS.
 PARALL= T  BALTYP=  DLB     KDIAG=    0  COREFL= F
 MXSEQ2=     300 MXSEQ3=     150  mem10=         0  mem22=         0

 Using Gaussians for PCM contribution to MEP, params: 0.10000E+01 0.10000E-07

          ----------------
          PROPERTIES INPUT
          ----------------

     MOMENTS            FIELD           POTENTIAL          DENSITY
 IEMOM =       1   IEFLD =       0   IEPOT =       0   IEDEN =       0
 WHERE =COMASS     WHERE =NUCLEI     WHERE =NUCLEI     WHERE =NUCLEI  
 OUTPUT=BOTH       OUTPUT=BOTH       OUTPUT=BOTH       OUTPUT=BOTH    
 IEMINT=       0   IEFINT=       0                     IEDINT=       0
                                                       MORB  =       0
          EXTRAPOLATION IN EFFECT
          DIIS IN EFFECT
          DIIS or SOSCF will be reset if energy rises
 ORBITAL PRINTING OPTION: NPREO=     1   154     2     1

     -------------------------------
     INTEGRAL TRANSFORMATION OPTIONS
     -------------------------------
     NWORD  =            0
     CUTOFF = 1.0E-09     MPTRAN =       0
     DIRTRF =       F     AOINTS =DUP     

          -----------------------------
          LOCALIZATION INPUT PARAMETERS
          -----------------------------
           LOCAL=RUEDNBRG      NOUTA=       0
          PRTLOC=       F      NOUTB=       0
          MAXLOC=     250     CVGLOC=1.00E-06
           FCORE=       F     SYMLOC=       F
          MOIDON=       F     EDCOMP=       F
          DIPDCM=       F      NPROT=       0
          QADDCM=       F     DEPRNT=       F
          POLNUM=       F     ORIENT=       F
          POLDYN=       F      VMTOL=1.50E-01
          NPRDTL=       2     IBOYAL=       1

          ----------------------
          INTEGRAL INPUT OPTIONS
          ----------------------
 NOPK  =       1 NORDER=       0 SCHWRZ=       T

     ------------------------------------------
     THE POINT GROUP IS C1 , NAXIS= 0, ORDER= 1
     ------------------------------------------

 -- VARIATIONAL SPACE WILL BE RESTRICTED TO PURE SPHERICAL HARMONICS ONLY --
 AFTER EXCLUDING CONTAMINANT COMBINATIONS FROM THE CARTESIAN GAUSSIAN BASIS
 SET, THE NUMBER OF SPHERICAL HARMONICS KEPT IN THE VARIATION SPACE IS  146

     DIMENSIONS OF THE SYMMETRY SUBSPACES ARE
 A   =  146

 ..... DONE SETTING UP THE RUN .....
 CPU     0: STEP CPU TIME=     0.02 TOTAL CPU TIME=          0.0 (      0.0 MIN)
 TOTAL WALL CLOCK TIME=          0.0 SECONDS, CPU UTILIZATION IS    69.87%

          --------------
          GKSEDA OPTIONS
          --------------
          NMOL  =       2          EDATYP=GKS     
          SUPBAS=       T          RDVECM=       F          ITRTN =       T

 *******************
 GKSEDA IS BEGINNING
 *******************

 NMOL =  2

 MONOMER     ATOM   CHARGE ELECTRON MULTIPLE
 -------------------------------------------
       1        5        0       15        2
       2        5        0       15       -2
 -------------------------------------------

 SAVING MOL INFO REQUIRES    598670 WORDS OF MEMORY.

          ********************
          1 ELECTRON INTEGRALS
          ********************
 ...... END OF ONE-ELECTRON INTEGRALS ......
 CPU     0: STEP CPU TIME=     0.01 TOTAL CPU TIME=          0.0 (      0.0 MIN)
 TOTAL WALL CLOCK TIME=          0.0 SECONDS, CPU UTILIZATION IS    73.49%

          -------------
          GUESS OPTIONS
          -------------
          GUESS =HUCKEL            NORB  =       0          NORDER=       0
          MIX   =       F          PRTMO =       F          PUNMO =       F
          TOLZ  = 1.0E-08          TOLE  = 1.0E-05
          SYMDEN=       F          PURIFY=       F

 INITIAL GUESS ORBITALS GENERATED BY HUCKEL   ROUTINE.
 HUCKEL GUESS REQUIRES    180842 WORDS.

 STATISTICS FOR GENERATION OF SYMMETRY ORBITAL -Q- MATRIX
 NUMBER OF CARTESIAN ATOMIC ORBITALS=        154
 NUMBER OF SPHERICAL CONTAMINANTS DROPPED=     8
 NUMBER OF LINEARLY DEPENDENT MOS DROPPED=     0
 TOTAL NUMBER OF MOS IN VARIATION SPACE=     146

 SYMMETRIES FOR INITIAL GUESS ORBITALS FOLLOW.  ALPHA SET(S).
    15 ORBITALS ARE OCCUPIED (    4 CORE ORBITALS).
     5=A        6=A        7=A        8=A        9=A       10=A       11=A   
    12=A       13=A       14=A       15=A       16=A       17=A       18=A   
    19=A       20=A       21=A       22=A       23=A       24=A       25=A   

 SYMMETRIES FOR INITIAL GUESS ORBITALS FOLLOW.   BETA SET(S).
    15 ORBITALS ARE OCCUPIED (    4 CORE ORBITALS).
     5=A        6=A        7=A        8=A        9=A       10=A       11=A   
    12=A       13=A       14=A       15=A       16=A       17=A       18=A   
    19=A       20=A       21=A       22=A       23=A       24=A       25=A   
 ...... END OF INITIAL ORBITAL SELECTION ......
 CPU     0: STEP CPU TIME=     0.01 TOTAL CPU TIME=          0.0 (      0.0 MIN)
 TOTAL WALL CLOCK TIME=          0.1 SECONDS, CPU UTILIZATION IS    79.96%

          -------------------------
          MONOMER  1 WITH OWN BASIS
          -------------------------

     ------------------------------------------
     THE POINT GROUP IS C1 , NAXIS= 0, ORDER= 1
     ------------------------------------------

 -- VARIATIONAL SPACE WILL BE RESTRICTED TO PURE SPHERICAL HARMONICS ONLY --
 AFTER EXCLUDING CONTAMINANT COMBINATIONS FROM THE CARTESIAN GAUSSIAN BASIS
 SET, THE NUMBER OF SPHERICAL HARMONICS KEPT IN THE VARIATION SPACE IS   73

     DIMENSIONS OF THE SYMMETRY SUBSPACES ARE
 A   =   73

          ********************
          1 ELECTRON INTEGRALS
          ********************
 ...... END OF ONE-ELECTRON INTEGRALS ......
 CPU     0: STEP CPU TIME=     0.01 TOTAL CPU TIME=          0.1 (      0.0 MIN)
 TOTAL WALL CLOCK TIME=          0.1 SECONDS, CPU UTILIZATION IS    77.58%

          -------------
          GUESS OPTIONS
          -------------
          GUESS =HUCKEL            NORB  =       0          NORDER=       0
          MIX   =       F          PRTMO =       F          PUNMO =       F
          TOLZ  = 1.0E-08          TOLE  = 1.0E-05
          SYMDEN=       F          PURIFY=       F

 INITIAL GUESS ORBITALS GENERATED BY HUCKEL   ROUTINE.
 HUCKEL GUESS REQUIRES     47410 WORDS.

 STATISTICS FOR GENERATION OF SYMMETRY ORBITAL -Q- MATRIX
 NUMBER OF CARTESIAN ATOMIC ORBITALS=         77
 NUMBER OF SPHERICAL CONTAMINANTS DROPPED=     4
 NUMBER OF LINEARLY DEPENDENT MOS DROPPED=     0
 TOTAL NUMBER OF MOS IN VARIATION SPACE=      73

 SYMMETRIES FOR INITIAL GUESS ORBITALS FOLLOW.  ALPHA SET(S).
     8 ORBITALS ARE OCCUPIED (    2 CORE ORBITALS).
     3=A        4=A        5=A        6=A        7=A        8=A        9=A   
    10=A       11=A       12=A       13=A       14=A       15=A       16=A   
    17=A       18=A   

 SYMMETRIES FOR INITIAL GUESS ORBITALS FOLLOW.   BETA SET(S).
     7 ORBITALS ARE OCCUPIED (    2 CORE ORBITALS).
     3=A        4=A        5=A        6=A        7=A        8=A        9=A   
    10=A       11=A       12=A       13=A       14=A       15=A       16=A   
    17=A   
 ...... END OF INITIAL ORBITAL SELECTION ......
 CPU     0: STEP CPU TIME=     0.00 TOTAL CPU TIME=          0.1 (      0.0 MIN)
 TOTAL WALL CLOCK TIME=          0.1 SECONDS, CPU UTILIZATION IS    78.62%

                    ----------------------
                    AO INTEGRAL TECHNOLOGY
                    ----------------------
     S,P,L SHELL ROTATED AXIS INTEGRALS, REPROGRAMMED BY
        KAZUYA ISHIMURA (IMS) AND JOSE SIERRA (SYNSTAR).
     S,P,D,L SHELL ROTATED AXIS INTEGRALS PROGRAMMED BY
        KAZUYA ISHIMURA (INSTITUTE FOR MOLECULAR SCIENCE).
     S,P,D,F,G SHELL TO TOTAL QUARTET ANGULAR MOMENTUM SUM 5,
        ERIC PROGRAM BY GRAHAM FLETCHER (ELORET AND NASA ADVANCED
        SUPERCOMPUTING DIVISION, AMES RESEARCH CENTER).
     S,P,D,F,G,L SHELL GENERAL RYS QUADRATURE PROGRAMMED BY
        MICHEL DUPUIS (PACIFIC NORTHWEST NATIONAL LABORATORY).

          --------------------
          2 ELECTRON INTEGRALS
          --------------------

 THE -PK- OPTION IS OFF, THE INTEGRALS ARE NOT IN SUPERMATRIX FORM.
 STORING   15000 INTEGRALS/RECORD ON DISK, USING 12 BYTES/INTEGRAL.
 TWO ELECTRON INTEGRAL EVALUATION REQUIRES   90957 WORDS OF MEMORY.
 SCHWARZ INEQUALITY OVERHEAD:      3003 INTEGRALS, T=        0.00
 II,JST,KST,LST =  1  1  1  1 NREC =         1 INTLOC =    1
 II,JST,KST,LST =  2  1  1  1 NREC =         1 INTLOC =    1
 II,JST,KST,LST =  3  1  1  1 NREC =         1 INTLOC =    1
 II,JST,KST,LST =  4  1  1  1 NREC =         1 INTLOC =    1
 II,JST,KST,LST =  5  1  1  1 NREC =         1 INTLOC =    1
 II,JST,KST,LST =  6  1  1  1 NREC =         1 INTLOC =    1
 II,JST,KST,LST =  7  1  1  1 NREC =         1 INTLOC =    4
 II,JST,KST,LST =  8  1  1  1 NREC =         1 INTLOC =  250
 II,JST,KST,LST =  9  1  1  1 NREC =         1 INTLOC =  250
 II,JST,KST,LST = 10  1  1  1 NREC =         1 INTLOC =  250
 II,JST,KST,LST = 11  1  1  1 NREC =         1 INTLOC =  339
 II,JST,KST,LST = 12  1  1  1 NREC =         1 INTLOC =  765
 II,JST,KST,LST = 13  1  1  1 NREC =         1 INTLOC =  765
 II,JST,KST,LST = 14  1  1  1 NREC =         1 INTLOC = 1100
 II,JST,KST,LST = 15  1  1  1 NREC =         1 INTLOC = 2343
 II,JST,KST,LST = 16  1  1  1 NREC =         1 INTLOC =14490
 II,JST,KST,LST = 17  1  1  1 NREC =         1 INTLOC =14490
 II,JST,KST,LST = 18  1  1  1 NREC =         1 INTLOC =14490
 II,JST,KST,LST = 19  1  1  1 NREC =         2 INTLOC =11287
 II,JST,KST,LST = 20  1  1  1 NREC =         2 INTLOC =11287
 II,JST,KST,LST = 21  1  1  1 NREC =         2 INTLOC =11287
 II,JST,KST,LST = 22  1  1  1 NREC =         3 INTLOC = 8434
 II,JST,KST,LST = 23  1  1  1 NREC =         4 INTLOC = 4757
 II,JST,KST,LST = 24  1  1  1 NREC =         5 INTLOC = 5318
 II,JST,KST,LST = 25  1  1  1 NREC =         5 INTLOC =14002
 II,JST,KST,LST = 26  1  1  1 NREC =         6 INTLOC = 6731
 II,JST,KST,LST = 27  1  1  1 NREC =         7 INTLOC = 3755
 II,JST,KST,LST = 28  1  1  1 NREC =         8 INTLOC = 6688
 II,JST,KST,LST = 29  1  1  1 NREC =         9 INTLOC = 3712
 II,JST,KST,LST = 30  1  1  1 NREC =        11 INTLOC = 3236
 II,JST,KST,LST = 31  1  1  1 NREC =        11 INTLOC = 3236
 II,JST,KST,LST = 32  1  1  1 NREC =        12 INTLOC =13012
 II,JST,KST,LST = 33  1  1  1 NREC =        14 INTLOC = 8514
 SCHWARZ INEQUALITY TEST SKIPPED           0 INTEGRAL BLOCKS.
 TOTAL NUMBER OF NONZERO TWO-ELECTRON INTEGRALS =             3900498
        269 INTEGRAL RECORDS WERE STORED ON DISK FILE  8.
  ...... END OF TWO-ELECTRON INTEGRALS .....
 CPU     0: STEP CPU TIME=     0.03 TOTAL CPU TIME=          0.1 (      0.0 MIN)
 TOTAL WALL CLOCK TIME=          0.1 SECONDS, CPU UTILIZATION IS    82.56%

          ---------------------------
              U-B3LYP SCF CALCULATION
          ---------------------------

     NUCLEAR ENERGY =        27.8454884170
     MAXIT = 30     NPUNCH=  2     MULT=  2
     EXTRAP=T  DAMP=F  SHIFT=F  RSTRCT=F  DIIS=T  SOSCF=T
         DENSITY MATRIX CONVERGENCE THRESHOLD=  1.00E-05
     COARSE -> FINE DFT GRID SWITCH THRESHOLD=  3.00E-04 (SWITCH IN $DFT)
                   HF -> DFT SWITCH THRESHOLD=  5.00E-03 (SWOFF IN $DFT)
     SOSCF WILL OPTIMIZE     520 ALPHA AND     462 BETA ROTATION ANGLES.
     SOGTOL= 2.500E-01
     MEMORY REQUIRED FOR UHF/ROHF ITERS=    298732 WORDS.

     EXCHANGE FUNCTIONAL   =B88&HFX   
     CORRELATION FUNCTIONAL=LYP88&VWN5
     DFT THRESHOLD         =.690E-08
     GRID CHANGE THRESHOLD =.300E-03
 FOR AN EULER-MACLAURIN QUADRATURE USING  96 RADIAL POINTS:
 SMALLEST GAUSSIAN PRIMITIVE EXPONENT=        0.0297400000 OF TYPE -S-
 ON ATOM NUMBER   3 HAS RADIAL NORMALIZATION=  1.000000
  LARGEST GAUSSIAN PRIMITIVE EXPONENT=     6665.0000000000 OF TYPE -S-
 ON ATOM NUMBER   1 HAS RADIAL NORMALIZATION=  1.000000
 DFT IS SWITCHED OFF, PERFORMING PURE SCF UNTIL SWOFF THRESHOLD IS REACHED.

 ITER EX      TOTAL ENERGY        E CHANGE  DENSITY CHANGE    DIIS ERROR
          * * *   INITIATING DIIS PROCEDURE   * * *
   1  0      -77.1747739616   -77.1747739616   0.498636412   0.357381760
   2  1      -77.3686059117    -0.1938319500   0.153887876   0.054094233
   3  2      -77.3846418820    -0.0160359703   0.031223380   0.026104204
   4  3      -77.3890610903    -0.0044192083   0.022234434   0.011296681
   5  4      -77.3904600404    -0.0013989500   0.012945644   0.008614276
   6  5      -77.3911149948    -0.0006549544   0.024203754   0.008621349
   7  6      -77.3921816718    -0.0010666771   0.062989843   0.008391820
   8  7      -77.3945499750    -0.0023683032   0.117901749   0.006628090
   9  8      -77.3961709409    -0.0016209658   0.075057812   0.002374043
  10  9      -77.3956901595     0.0004807813   0.045231926   0.004400199
  11 10      -77.3962685450    -0.0005783854   0.008788618   0.000842991
  12 11      -77.3962879934    -0.0000194485   0.000293184   0.000079683
 CONVERGED TO SWOFF, SO DFT CALCULATION IS NOW SWITCHED ON.
          * * *   INITIATING DIIS PROCEDURE   * * *
  13 12      -77.8300104379    -0.4337224444   0.394185561   0.062315425
  14 13      -77.8466279636    -0.0166175257   0.062826408   0.016774954
  15 14      -77.8493167890    -0.0026888254   0.024684188   0.012030213
  16 15      -77.8507790478    -0.0014622589   0.050555825   0.007400214
  17 16      -77.8517613857    -0.0009823378   0.009427549   0.003612213
  18 17      -77.8518510106    -0.0000896249   0.006181774   0.001389834
  19 18      -77.8518711833    -0.0000201726   0.002069844   0.000277079
         SWDIIS THRESHOLD HAS BEEN REACHED: SWITCHING DIIS OFF.
          ---------------START SECOND ORDER SCF---------------
  20 19      -77.8518723669    -0.0000011836   0.000137118   0.000022750
  21 20      -77.8518723789    -0.0000000121   0.000155345   0.000023215
  22 21      -77.8518723795    -0.0000000006   0.000065141   0.000021317
  23 22      -77.8518723837    -0.0000000041   0.000009166   0.000002440
  24 23      -77.8518723838    -0.0000000001   0.000013888   0.000001974

          ----------------
          ENERGY CONVERGED
          ----------------
     TIME TO FORM FOCK OPERATORS=       1.2 SECONDS (       0.1 SEC/ITER)
     TIME TO SOLVE SCF EQUATIONS=       0.1 SECONDS (       0.0 SEC/ITER)

 FINAL U-B3LYP ENERGY IS      -77.8518723838 AFTER  24 ITERATIONS
 DFT EXCHANGE + CORRELATION ENERGY =        -9.5235968288
 TOTAL ELECTRON NUMBER             =        14.9999877920

          --------------------
          SPIN SZ   =    0.500
          S-SQUARED =    0.764
          --------------------

  ----- ALPHA SET ----- 

          ------------
          EIGENVECTORS
          ------------

                      1          2          3          4          5
                  -10.2295   -10.2022    -0.7665    -0.5783    -0.4642
                     A          A          A          A          A   
    1  C  1  S    0.011893   1.009644  -0.019579   0.011335  -0.002193
    2  C  1  S   -0.001513   0.022136   0.316393  -0.227098   0.000295
    3  C  1  S    0.039904  -0.073219   0.097104  -0.324043  -0.036283
    4  C  1  X   -0.000000  -0.000011   0.000001   0.001505   0.007915
    5  C  1  Y   -0.000024  -0.000000   0.007851   0.030451   0.340184
    6  C  1  Z   -0.001000  -0.000357   0.110139   0.206947  -0.210646
    7  C  1  X   -0.000038   0.000022   0.000720   0.000499  -0.000070
    8  C  1  Y   -0.001400  -0.000273   0.023323   0.027281  -0.015990
    9  C  1  Z    0.038465  -0.008897  -0.028234  -0.243624   0.038885
   10  C  1 XX    0.000217  -0.001622  -0.006319   0.001528  -0.001706
   11  C  1 YY    0.000861   0.000834  -0.007541  -0.011293   0.008476
   12  C  1 ZZ   -0.001078   0.000788   0.013860   0.009766  -0.006770
   13  C  1 XY    0.000017   0.000066  -0.000030  -0.000357   0.000180
   14  C  1 XZ    0.000014   0.000007  -0.000016   0.000091  -0.000069
   15  C  1 YZ    0.000475   0.000042   0.000196   0.002365  -0.006101
   16  C  1  S    0.015206  -0.033865   0.016563   0.137415  -0.060680
   17  C  1  X    0.000028   0.000030  -0.000110   0.000254  -0.001320
   18  C  1  Y    0.000765   0.000811  -0.003904   0.009495  -0.058508
   19  C  1  Z    0.006198  -0.003673  -0.001812   0.011517  -0.008873
   20  C  1 XX   -0.002126   0.004865   0.006260  -0.006970  -0.006247
   21  C  1 YY   -0.004462   0.001512  -0.008347   0.105952  -0.044452
   22  C  1 ZZ    0.006588  -0.006377   0.002087  -0.098982   0.050699
   23  C  1 XY   -0.000068  -0.000094  -0.000269   0.003238  -0.000551
   24  C  1 XZ   -0.000095  -0.000046   0.000649   0.000293   0.002472
   25  C  1 YZ   -0.003169  -0.001081   0.024730   0.018470   0.104530
   26  C  2  S    1.009978  -0.013457  -0.017019  -0.006442  -0.000372
   27  C  2  S    0.022704  -0.001356   0.307141   0.269340  -0.069654
   28  C  2  S   -0.089527   0.024408   0.252536   0.494465  -0.239465
   29  C  2  X    0.000037   0.000002   0.000919   0.003552   0.006984
   30  C  2  Y    0.000897   0.000108   0.024324   0.096984   0.255210
   31  C  2  Z   -0.000212   0.000905  -0.127779   0.119193   0.165501
   32  C  2  X   -0.000117  -0.000031  -0.001764  -0.002419   0.000016
   33  C  2  Y   -0.003176  -0.001131  -0.056909  -0.092212   0.008472
   34  C  2  Z    0.030502  -0.016857  -0.090395  -0.221900   0.063049
   35  C  2 XX   -0.000854   0.000670  -0.011419  -0.001458  -0.000469
   36  C  2 YY    0.000517   0.000643  -0.003893   0.009810   0.005738
   37  C  2 ZZ    0.000337  -0.001313   0.015311  -0.008352  -0.005269
   38  C  2 XY    0.000048   0.000001   0.000174   0.000362   0.000292
   39  C  2 XZ    0.000032   0.000003  -0.000157  -0.000013  -0.000152
   40  C  2 YZ    0.000890   0.000040  -0.006118  -0.001577  -0.009588
   41  C  2  S   -0.028975   0.019712  -0.018721  -0.117405   0.022084
   42  C  2  X   -0.000046  -0.000044  -0.000036  -0.000864   0.000371
   43  C  2  Y   -0.001421  -0.001327  -0.000079  -0.027050   0.017993
   44  C  2  Z    0.004210  -0.005758   0.006721   0.004517  -0.013315
   45  C  2 XX    0.005986  -0.001049  -0.006851   0.006091   0.001212
   46  C  2 YY    0.004300  -0.001755  -0.017604  -0.059736  -0.008416
   47  C  2 ZZ   -0.010286   0.002804   0.024454   0.053645   0.007204
   48  C  2 XY   -0.000058  -0.000022  -0.000588  -0.002253  -0.000652
   49  C  2 XZ   -0.000139  -0.000041   0.000212  -0.000782   0.000194
   50  C  2 YZ   -0.004303  -0.001173   0.008542  -0.022728   0.013033
   51  H  3  S   -0.000659  -0.000101   0.123982   0.258567   0.195659
   52  H  3  S    0.021445   0.007210   0.063933   0.272554   0.109771
   53  H  3  X    0.000056  -0.000002  -0.000411  -0.000585  -0.000263
   54  H  3  Y    0.001712  -0.000007  -0.012687  -0.016789  -0.005987
   55  H  3  Z    0.000745   0.000190  -0.011290  -0.010018  -0.005311
   56  H  3  S    0.001318   0.001924   0.003310   0.026039   0.010499
   57  H  3  X   -0.000256  -0.000075  -0.000170  -0.001689  -0.000181
   58  H  3  Y   -0.007720  -0.002222  -0.007466  -0.042371  -0.011991
   59  H  3  Z   -0.002025  -0.000916  -0.017331  -0.029681  -0.010940
   60  H  4  S   -0.000343  -0.000845   0.116715  -0.228271  -0.140447
   61  H  4  S    0.017671   0.021870  -0.010654  -0.216753  -0.197229
   62  H  4  X   -0.000006  -0.000042   0.000371  -0.000415  -0.000004
   63  H  4  Y   -0.000210  -0.001542   0.014351  -0.016862   0.000652
   64  H  4  Z   -0.000617  -0.001017   0.012507  -0.005370  -0.009962
   65  H  4  S    0.001755   0.002000  -0.000013  -0.012560  -0.041459
   66  H  4  X    0.000124   0.000175  -0.000199  -0.000638  -0.001148
   67  H  4  Y    0.004815   0.006784  -0.009262  -0.020459  -0.049217
   68  H  4  Z    0.002426   0.003026   0.008806  -0.034198   0.011329
   69  H  5  S   -0.000187  -0.000921   0.126826  -0.203747   0.340572
   70  H  5  S    0.009294   0.019028   0.016105  -0.227679   0.434148
   71  H  5  X   -0.000001   0.000030  -0.000293   0.000338  -0.000159
   72  H  5  Y   -0.000081   0.001518  -0.014490   0.016639  -0.010188
   73  H  5  Z   -0.000421  -0.000949   0.011295  -0.004968   0.005087
   74  H  5  S    0.001698   0.001147   0.002396  -0.014211   0.045472
   75  H  5  X   -0.000046  -0.000122  -0.000051   0.000036  -0.001487
   76  H  5  Y   -0.002349  -0.006010   0.000361   0.020624  -0.072101
   77  H  5  Z    0.001996   0.002964  -0.001763  -0.053999   0.040845

                      6          7          8          9         10
                   -0.4138    -0.2848    -0.2733    -0.0200    -0.0019
                     A          A          A          A          A   
    1  C  1  S   -0.000006  -0.000002   0.000618  -0.000038  -0.002986
    2  C  1  S   -0.036251   0.002316   0.050588   0.000270   0.084514
    3  C  1  S   -0.169207   0.002053   0.024073   0.000587   0.347091
    4  C  1  X   -0.005740   0.391488  -0.015130   0.404198   0.000507
    5  C  1  Y   -0.256642  -0.012923  -0.134260  -0.009142   0.028990
    6  C  1  Z   -0.319043   0.003674   0.113481  -0.001142  -0.095934
    7  C  1  X    0.001860   0.215941  -0.006095   0.338850   0.000323
    8  C  1  Y    0.059559  -0.003899   0.031950  -0.008146   0.041927
    9  C  1  Z   -0.092080  -0.001037  -0.021741  -0.000833  -0.282428
   10  C  1 XX   -0.001115  -0.000010   0.000541  -0.000021   0.000912
   11  C  1 YY    0.010532  -0.000033  -0.000667  -0.000022  -0.002758
   12  C  1 ZZ   -0.009417   0.000043   0.000126   0.000043   0.001847
   13  C  1 XY    0.000408   0.000622   0.000041   0.000063  -0.000111
   14  C  1 XZ    0.000477   0.021665   0.000318  -0.030014   0.000052
   15  C  1 YZ    0.013714   0.000531   0.040450   0.000941   0.001398
   16  C  1  S   -0.038236   0.005913   0.157729   0.001057   1.299784
   17  C  1  X    0.001247   0.028829  -0.000534   0.560567  -0.001356
   18  C  1  Y    0.051206  -0.000197   0.020082  -0.012424   0.035726
   19  C  1  Z   -0.014857   0.001420   0.040116  -0.000584  -0.297812
   20  C  1 XX    0.000087  -0.000012  -0.005613  -0.000068  -0.039432
   21  C  1 YY   -0.043884   0.000947   0.029144   0.000122   0.024344
   22  C  1 ZZ    0.043798  -0.000934  -0.023531  -0.000054   0.015088
   23  C  1 XY   -0.001193   0.004510   0.000681  -0.003254   0.001643
   24  C  1 XZ   -0.001083   0.003690  -0.000951  -0.041798   0.001033
   25  C  1 YZ   -0.052424  -0.000972  -0.035481   0.000467   0.027104
   26  C  2  S   -0.000899   0.000003  -0.000811  -0.000046  -0.002498
   27  C  2  S    0.030770  -0.005544  -0.151487   0.000664   0.056105
   28  C  2  S   -0.055013  -0.010786  -0.311907   0.002032   0.364790
   29  C  2  X    0.002672   0.443000  -0.001304  -0.411935   0.001449
   30  C  2  Y    0.034013   0.001930   0.474822   0.012110   0.043653
   31  C  2  Z    0.373508  -0.009276  -0.255969   0.001377   0.082462
   32  C  2  X   -0.001835   0.256752  -0.002236  -0.348503   0.003326
   33  C  2  Y   -0.065870  -0.000496   0.243384   0.011117   0.098966
   34  C  2  Z    0.045296  -0.007634  -0.222838   0.000869  -0.005354
   35  C  2 XX   -0.001597  -0.000065  -0.004806  -0.000054  -0.001696
   36  C  2 YY    0.010947  -0.000068  -0.000015   0.000002  -0.004858
   37  C  2 ZZ   -0.009350   0.000133   0.004821   0.000052   0.006554
   38  C  2 XY    0.000458  -0.000542   0.000349  -0.000069  -0.000099
   39  C  2 XZ    0.000524  -0.020336   0.001125  -0.032113  -0.000065
   40  C  2 YZ    0.017785   0.001065   0.020363   0.000643  -0.003560
   41  C  2  S   -0.014708  -0.008952  -0.260996   0.002106   0.870979
   42  C  2  X   -0.001060   0.031550  -0.000505  -0.512548   0.007062
   43  C  2  Y   -0.035719  -0.000284   0.023921   0.013416   0.191517
   44  C  2  Z   -0.015081   0.000418   0.007186   0.000921   0.148814
   45  C  2 XX   -0.003973   0.000261   0.006916   0.000363  -0.039511
   46  C  2 YY   -0.036608  -0.000768  -0.022849  -0.000325  -0.012538
   47  C  2 ZZ    0.040581   0.000507   0.015932  -0.000038   0.052049
   48  C  2 XY   -0.001372  -0.001314  -0.000806   0.008307   0.001129
   49  C  2 XZ   -0.000421  -0.007207  -0.000142  -0.037627   0.001129
   50  C  2 YZ   -0.017391  -0.000104  -0.012461   0.000453   0.033565
   51  H  3  S    0.231905   0.005858   0.195652  -0.001890   0.005438
   52  H  3  S    0.276639   0.007745   0.249565  -0.002155  -0.359343
   53  H  3  X   -0.000277   0.015692  -0.000396  -0.020918  -0.000340
   54  H  3  Y   -0.009241  -0.000286   0.006880   0.000605  -0.010659
   55  H  3  Z    0.000989  -0.000568  -0.015907   0.000060  -0.001624
   56  H  3  S    0.036662   0.000659   0.027572  -0.001110  -0.900669
   57  H  3  X   -0.001257   0.015377  -0.001380  -0.053454   0.001102
   58  H  3  Y   -0.038510  -0.001069  -0.017846   0.001128   0.032103
   59  H  3  Z   -0.036423  -0.001116  -0.029078   0.000036   0.033207
   60  H  4  S    0.325643   0.003450   0.145441   0.000181   0.006904
   61  H  4  S    0.391496   0.004409   0.193059   0.000951  -0.403890
   62  H  4  X    0.000293   0.014394  -0.000463   0.021793   0.000237
   63  H  4  Y    0.009670  -0.000386  -0.000879  -0.000539   0.009634
   64  H  4  Z    0.003248   0.000138   0.005115  -0.000096   0.002087
   65  H  4  S    0.035867   0.000901   0.039762   0.002763  -0.640438
   66  H  4  X    0.001559   0.015697   0.000327   0.045358  -0.001561
   67  H  4  Y    0.055161   0.000586   0.035469  -0.000968  -0.063555
   68  H  4  Z    0.052293  -0.000018   0.003287  -0.000429  -0.016726
   69  H  5  S   -0.073775  -0.006180  -0.209658  -0.001437   0.004014
   70  H  5  S   -0.184592  -0.009909  -0.337459  -0.001985  -0.419188
   71  H  5  X   -0.000085   0.014364  -0.000474   0.022663  -0.000260
   72  H  5  Y   -0.003213  -0.000295  -0.000090  -0.000520  -0.012182
   73  H  5  Z   -0.010873  -0.000020   0.000267  -0.000013   0.003434
   74  H  5  S   -0.043076  -0.000866  -0.041757  -0.002133  -1.136058
   75  H  5  X    0.000932   0.012829   0.000346   0.052782   0.000817
   76  H  5  Y    0.051026   0.000934   0.043151  -0.001455   0.036553
   77  H  5  Z   -0.005770  -0.000925  -0.023107   0.000309  -0.024830

                     11         12         13         14         15
                    0.0148     0.0250     0.0628     0.0711     0.0791
                     A          A          A          A          A   
    1  C  1  S   -0.001248   0.002380   0.000364   0.007680   0.002862
    2  C  1  S    0.067934  -0.016981  -0.000480  -0.012424   0.043628
    3  C  1  S    0.186859  -0.129278  -0.018975  -0.391019   0.152726
    4  C  1  X   -0.001676  -0.002296  -0.172538   0.005926  -0.000132
    5  C  1  Y   -0.066866  -0.118844   0.004852   0.037153   0.011181
    6  C  1  Z   -0.036161   0.004904   0.000381   0.013869   0.054843
    7  C  1  X   -0.004447  -0.007616  -0.199918   0.009184   0.000774
    8  C  1  Y   -0.169481  -0.372822   0.006739   0.101162   0.009886
    9  C  1  Z   -0.272123   0.104387   0.001117   0.030945  -0.044139
   10  C  1 XX    0.002834  -0.003153  -0.000135  -0.007418  -0.006842
   11  C  1 YY    0.004858  -0.001730   0.000025   0.001111  -0.010869
   12  C  1 ZZ   -0.007693   0.004883   0.000109   0.006307   0.017710
   13  C  1 XY    0.000074   0.000024   0.000859   0.000212  -0.000100
   14  C  1 XZ   -0.000193  -0.000090  -0.006080  -0.000160   0.000079
   15  C  1 YZ   -0.004819  -0.003794  -0.000154  -0.010464   0.002954
   16  C  1  S    0.437066  -1.737087  -0.392504 -10.825062   1.497743
   17  C  1  X   -0.003447  -0.044799   0.628753  -0.013454  -0.013819
   18  C  1  Y   -0.193779  -1.941208   0.014588   0.435926  -0.489574
   19  C  1  Z   -0.530958  -0.369452  -0.164318  -4.832558  -1.567248
   20  C  1 XX   -0.011035   0.016488   0.001500   0.081093   0.022359
   21  C  1 YY    0.022217  -0.051224  -0.004349  -0.154214   0.016390
   22  C  1 ZZ   -0.011183   0.034736   0.002849   0.073121  -0.038749
   23  C  1 XY    0.001357  -0.001563  -0.024039  -0.005885  -0.000402
   24  C  1 XZ   -0.000874   0.002461  -0.041231   0.002056   0.003195
   25  C  1 YZ   -0.043375   0.099347   0.000377   0.002692   0.114242
   26  C  2  S   -0.001258  -0.000722  -0.000233  -0.005497   0.005465
   27  C  2  S   -0.073544   0.047730   0.001316   0.041103   0.030372
   28  C  2  S   -0.234258   0.242244   0.015357   0.431440   0.050106
   29  C  2  X   -0.003089  -0.001146  -0.128402  -0.000153   0.001442
   30  C  2  Y   -0.085189  -0.046366  -0.000264  -0.142582   0.060836
   31  C  2  Z   -0.027994   0.023085   0.000376   0.004438  -0.076021
   32  C  2  X   -0.006198   0.002910  -0.146764   0.008861  -0.005224
   33  C  2  Y   -0.160197   0.092230   0.010439   0.116752  -0.141946
   34  C  2  Z   -0.249159   0.148367   0.000243   0.042777  -0.065071
   35  C  2 XX   -0.003406   0.001486  -0.000239   0.001416  -0.010065
   36  C  2 YY   -0.001790   0.002134   0.000288  -0.000554  -0.013418
   37  C  2 ZZ    0.005195  -0.003620  -0.000050  -0.000862   0.023483
   38  C  2 XY    0.000100  -0.000011  -0.003902   0.000044  -0.000124
   39  C  2 XZ    0.000216   0.000140   0.013346  -0.000312  -0.000157
   40  C  2 YZ    0.008177   0.007616  -0.000302   0.001999  -0.006654
   41  C  2  S   -0.503602   2.267657   0.394198  11.127610  -0.291021
   42  C  2  X   -0.019810   0.026397   0.594782  -0.013806   0.002855
   43  C  2  Y   -0.558234   1.019507  -0.025821   0.314658  -0.061132
   44  C  2  Z   -0.625712  -0.233788  -0.153205  -4.198280   1.876912
   45  C  2 XX    0.008059  -0.040997  -0.000396  -0.076268   0.062887
   46  C  2 YY   -0.062966   0.032481   0.000247   0.084750  -0.027097
   47  C  2 ZZ    0.054907   0.008515   0.000148  -0.008482  -0.035790
   48  C  2 XY   -0.002782   0.002485   0.039368   0.004541  -0.002733
   49  C  2 XZ   -0.002180   0.002617   0.015509   0.001529   0.002702
   50  C  2 YZ   -0.072763   0.084347   0.001162   0.058824   0.082941
   51  H  3  S    0.016628   0.014970  -0.000297  -0.022517  -0.017164
   52  H  3  S    0.672563  -0.542184  -0.027614  -0.848432   0.215323
   53  H  3  X    0.000333  -0.000047   0.005761   0.000147  -0.000259
   54  H  3  Y    0.010274   0.000208   0.000114   0.009789  -0.008415
   55  H  3  Z    0.008247  -0.000460   0.000051   0.005311   0.007087
   56  H  3  S    2.557401  -1.415160   0.116840   3.487860  -0.158277
   57  H  3  X   -0.002798   0.004651  -0.038808   0.006447  -0.002976
   58  H  3  Y   -0.083096   0.131652   0.006440   0.135707  -0.084248
   59  H  3  Z   -0.021291   0.003570   0.005483   0.142488  -0.096802
   60  H  4  S   -0.009952   0.012655  -0.000460  -0.023055  -0.023892
   61  H  4  S   -0.443599  -0.454690   0.024146   0.592562  -0.345275
   62  H  4  X    0.000226   0.000123   0.003546  -0.000145   0.000069
   63  H  4  Y    0.007592   0.002806   0.000000  -0.000193   0.003613
   64  H  4  Z    0.007165   0.002843  -0.000252  -0.010611  -0.011252
   65  H  4  S   -2.022382  -3.120927   0.010478   0.444689  -1.127336
   66  H  4  X   -0.001178  -0.001565  -0.070380   0.003637  -0.000630
   67  H  4  Y   -0.059511  -0.053022   0.002815   0.032540  -0.012023
   68  H  4  Z   -0.007563  -0.053216   0.005208   0.145491   0.030120
   69  H  5  S    0.002719  -0.002546   0.000669   0.025536  -0.037706
   70  H  5  S   -0.162978   0.860155   0.016548   0.402966   0.098225
   71  H  5  X   -0.000027   0.000064   0.004193  -0.000140  -0.000142
   72  H  5  Y   -0.002512   0.004199  -0.000128  -0.001333  -0.006218
   73  H  5  Z    0.003292  -0.007295  -0.000115  -0.002393  -0.014385
   74  H  5  S   -0.503110   3.803459  -0.137451  -4.351268   0.579875
   75  H  5  X    0.001261  -0.001273  -0.031438   0.002301  -0.001843
   76  H  5  Y    0.063543  -0.091294  -0.000377  -0.001088  -0.090172
   77  H  5  Z    0.051440   0.069288   0.004992   0.101509   0.038646

                     16         17         18         19         20
                    0.1117     0.1125     0.1167     0.1280     0.1461
                     A          A          A          A          A   
    1  C  1  S    0.005390  -0.000524  -0.039036  -0.014684  -0.014776
    2  C  1  S   -0.062337   0.000569  -0.204523  -0.018821  -0.120144
    3  C  1  S   -1.009320   0.036677   0.343730   0.518262   0.509197
    4  C  1  X    0.010076   0.235977  -0.002973   0.003898   0.002239
    5  C  1  Y    0.111572  -0.008601  -0.084197   0.238767   0.038749
    6  C  1  Z    0.003532   0.000079   0.121074   0.000979   0.130872
    7  C  1  X   -0.004529   0.188124   0.002955  -0.024312   0.000459
    8  C  1  Y   -0.417147   0.006994   0.298443  -0.932333  -0.170972
    9  C  1  Z   -1.252423   0.024711  -1.535729  -0.371479   1.537187
   10  C  1 XX    0.001045   0.000207   0.019942   0.016309  -0.039237
   11  C  1 YY   -0.000174  -0.000093   0.003745  -0.007891   0.048613
   12  C  1 ZZ   -0.000871  -0.000114  -0.023687  -0.008418  -0.009376
   13  C  1 XY    0.000082   0.001287  -0.000400  -0.000905   0.002340
   14  C  1 XZ    0.000493  -0.006865  -0.000211   0.000268  -0.000572
   15  C  1 YZ    0.024212  -0.000452  -0.007466   0.009346  -0.017003
   16  C  1  S   -5.673155   0.219534   5.166988   5.215358   0.133589
   17  C  1  X   -0.072157  -2.232321   0.050433  -0.135435  -0.057518
   18  C  1  Y   -0.258477   0.060640   1.823188  -6.068417  -2.416201
   19  C  1  Z   -3.648995   0.103016  -1.889323   1.695203   0.559899
   20  C  1 XX    0.044752  -0.003878  -0.161772  -0.036266  -0.097038
   21  C  1 YY    0.187111  -0.000419   0.339611   0.196796  -0.658754
   22  C  1 ZZ   -0.231863   0.004297  -0.177839  -0.160530   0.755792
   23  C  1 XY    0.004229  -0.034068   0.012934   0.008419  -0.014801
   24  C  1 XZ   -0.003057  -0.056117   0.001880   0.007668   0.010355
   25  C  1 YZ   -0.062272   0.003221  -0.012669   0.333712   0.321056
   26  C  2  S    0.008611  -0.000607  -0.036229  -0.026046   0.024691
   27  C  2  S    0.113086  -0.004060  -0.114079  -0.098418   0.012920
   28  C  2  S    0.486955  -0.000236   1.271343   0.764776  -2.177582
   29  C  2  X   -0.000902  -0.240903   0.001112   0.000843  -0.004028
   30  C  2  Y    0.182204   0.001522  -0.009230   0.001821  -0.093356
   31  C  2  Z    0.059189  -0.001635  -0.085512  -0.008290  -0.068391
   32  C  2  X   -0.020414  -0.229084   0.005956   0.014614  -0.017867
   33  C  2  Y   -0.366078   0.022398   0.142919   0.396500  -0.517450
   34  C  2  Z   -1.385738   0.037159  -0.868181   0.129680   1.074002
   35  C  2 XX   -0.004714  -0.000062   0.005627   0.013422  -0.011945
   36  C  2 YY    0.006102   0.000109   0.002377  -0.007730   0.017836
   37  C  2 ZZ   -0.001387  -0.000047  -0.008004  -0.005692  -0.005892
   38  C  2 XY    0.000287  -0.005935   0.000027  -0.000735   0.000771
   39  C  2 XZ   -0.000518  -0.004094   0.000042  -0.000376  -0.000109
   40  C  2 YZ   -0.016095   0.000448   0.004066  -0.017144   0.001828
   41  C  2  S    4.100376  -0.102434   2.578674  -0.887531  -1.937688
   42  C  2  X   -0.027751   2.233083  -0.031100   0.092639   0.020269
   43  C  2  Y   -2.828285   0.033058  -0.712683   3.492558   0.673294
   44  C  2  Z   -4.233340   0.128304  -0.084627   2.235154   1.058259
   45  C  2 XX    0.008389   0.001843  -0.128468  -0.071061  -0.024393
   46  C  2 YY   -0.310053   0.005794  -0.125466   0.039238   0.194326
   47  C  2 ZZ    0.301665  -0.007637   0.253934   0.031824  -0.169933
   48  C  2 XY   -0.010558   0.062069   0.000618   0.003257   0.005785
   49  C  2 XZ   -0.010472  -0.084048   0.003989   0.004947   0.006595
   50  C  2 YZ   -0.248347   0.009973   0.099486   0.144802   0.184248
   51  H  3  S   -0.021810  -0.000725   0.009726  -0.086580   0.104537
   52  H  3  S    2.265852  -0.083376  -0.580292  -1.768622   0.632796
   53  H  3  X   -0.000647  -0.000511   0.000377   0.000395  -0.000263
   54  H  3  Y   -0.019822   0.000783   0.011705   0.010882  -0.008262
   55  H  3  Z   -0.012391   0.000505  -0.001694   0.015075  -0.005185
   56  H  3  S    6.208541  -0.195958   0.069473  -3.814226  -0.740091
   57  H  3  X   -0.022614  -0.118380   0.008979   0.010450   0.003361
   58  H  3  Y   -0.614540   0.024099   0.256711   0.277948   0.211379
   59  H  3  Z   -0.391787   0.013490   0.073643   0.159066  -0.140819
   60  H  4  S    0.029189  -0.000938  -0.002794  -0.057034   0.098418
   61  H  4  S   -1.075629   0.010573  -1.671634  -3.126967   0.719985
   62  H  4  X   -0.000321  -0.000339  -0.000255  -0.000582  -0.000504
   63  H  4  Y   -0.010916   0.000207  -0.009529  -0.022951  -0.023835
   64  H  4  Z   -0.009021   0.000172  -0.000943  -0.011090   0.005994
   65  H  4  S   -3.884513   0.095636  -0.744809  -5.144315  -1.953313
   66  H  4  X   -0.006366   0.089600  -0.012464  -0.014311  -0.008528
   67  H  4  Y   -0.332422   0.003499  -0.437628  -0.571160  -0.472959
   68  H  4  Z   -0.305438   0.004653  -0.205810  -0.569106   0.402570
   69  H  5  S   -0.020131  -0.000579  -0.017949  -0.021509   0.225813
   70  H  5  S   -0.066945  -0.018868  -2.727798   1.125975   2.818754
   71  H  5  X   -0.000140   0.001508   0.000534  -0.000404   0.000342
   72  H  5  Y   -0.007714   0.000366   0.026123  -0.016537   0.011463
   73  H  5  Z    0.000417  -0.000098  -0.013636   0.014754  -0.000299
   74  H  5  S   -1.304021   0.028794  -4.202434   6.583095   2.779430
   75  H  5  X    0.003035   0.122050   0.013347  -0.012195   0.007397
   76  H  5  Y    0.000286   0.000049   0.666173  -0.423194   0.142881
   77  H  5  Z    0.101382  -0.005817  -0.423534   0.168990   0.435755

                     21         22         23         24         25
                    0.1683     0.1951     0.2195     0.2530     0.2851
                     A          A          A          A          A   
    1  C  1  S    0.049007   0.019119  -0.000172  -0.005365   0.010081
    2  C  1  S    0.158119   0.013068   0.000315  -0.030986   0.138923
    3  C  1  S   -2.114534  -0.588954  -0.005345   0.757864  -0.391621
    4  C  1  X   -0.000487   0.002884   0.002337  -0.004029   0.000037
    5  C  1  Y   -0.067696   0.123662   0.006236  -0.200475  -0.006950
    6  C  1  Z   -0.061593  -0.021226   0.000035   0.074747   0.019412
    7  C  1  X    0.001041   0.020686  -0.070457  -0.005801  -0.002062
    8  C  1  Y   -0.098859   0.603412   0.016298  -0.228282  -0.088001
    9  C  1  Z   -1.022576   1.215792  -0.040316   0.758886  -2.396682
   10  C  1 XX    0.014561  -0.024866   0.002281  -0.015419   0.023967
   11  C  1 YY   -0.006257   0.025698  -0.001978   0.017435   0.073763
   12  C  1 ZZ   -0.008304  -0.000832  -0.000304  -0.002015  -0.097730
   13  C  1 XY   -0.000351   0.001654   0.047258   0.001885   0.001400
   14  C  1 XZ   -0.001032   0.000972  -0.002679  -0.000628   0.000308
   15  C  1 YZ   -0.037888   0.036966   0.000570  -0.031668   0.013445
   16  C  1  S  -18.135530 -20.842327   0.430495 -10.345135  -2.439470
   17  C  1  X   -0.005644   0.056496   0.019367  -0.040710   0.017427
   18  C  1  Y   -0.147830   2.464515   0.009392  -1.752416   1.012561
   19  C  1  Z   -6.176760  -5.911717   0.121529  -2.272245  -4.050198
   20  C  1 XX    0.178819   0.120201  -0.006620   0.084040   0.273896
   21  C  1 YY    0.148800  -0.558632   0.015435  -0.211838  -0.131756
   22  C  1 ZZ   -0.327619   0.438431  -0.008816   0.127798  -0.142141
   23  C  1 XY   -0.000619  -0.020526  -0.175061  -0.014131  -0.013305
   24  C  1 XZ    0.010012  -0.001190  -0.016089   0.019101  -0.001773
   25  C  1 YZ    0.446562  -0.188069  -0.013265   0.856498  -0.222438
   26  C  2  S   -0.045611  -0.017815   0.000159  -0.004210  -0.034319
   27  C  2  S   -0.197398  -0.049598   0.000130  -0.000244  -0.164468
   28  C  2  S    1.620311  -0.504486   0.009238  -0.363154   0.616096
   29  C  2  X   -0.002303   0.003312  -0.040473   0.007340   0.002641
   30  C  2  Y   -0.037793   0.061921  -0.005169   0.288270   0.038665
   31  C  2  Z   -0.109026  -0.007816   0.000777   0.021712   0.251684
   32  C  2  X   -0.003486   0.023273  -0.231804   0.011376  -0.013329
   33  C  2  Y   -0.150991   0.782377  -0.019955   0.392712  -0.410107
   34  C  2  Z   -1.212884   1.116243  -0.037457   0.799703  -1.577575
   35  C  2 XX   -0.016241   0.012214   0.000836   0.014705  -0.029571
   36  C  2 YY    0.011461   0.003781  -0.001157  -0.021534  -0.022346
   37  C  2 ZZ    0.004780  -0.015995   0.000321   0.006830   0.051917
   38  C  2 XY    0.001234  -0.000396   0.022018  -0.000766  -0.000070
   39  C  2 XZ    0.000456  -0.001511   0.009241   0.000326   0.000165
   40  C  2 YZ    0.018417  -0.052473  -0.000472   0.010136   0.007458
   41  C  2  S   18.367520  20.982976  -0.438352  10.991061   4.116263
   42  C  2  X   -0.055460  -0.026800  -0.170165   0.040707  -0.036006
   43  C  2  Y   -1.683139  -1.007642   0.001923   1.610637  -1.326632
   44  C  2  Z   -6.127673  -5.258352   0.124321  -2.408813  -1.665411
   45  C  2 XX   -0.183930  -0.165029   0.009500  -0.002467  -0.190074
   46  C  2 YY   -0.169811   0.198109  -0.018568   0.202840  -0.182043
   47  C  2 ZZ    0.353740  -0.033080   0.009069  -0.200373   0.372116
   48  C  2 XY    0.002113   0.012798   0.257098   0.013451   0.000390
   49  C  2 XZ    0.008057   0.011963  -0.113330   0.012390  -0.006468
   50  C  2 YZ    0.334698   0.280934  -0.009941   0.614010  -0.342232
   51  H  3  S    0.178427  -0.178948   0.001666  -0.092173   0.024814
   52  H  3  S   -0.255488  -3.003906   0.100338  -2.935365   2.155658
   53  H  3  X    0.000349  -0.000004  -0.004138  -0.000239  -0.000104
   54  H  3  Y    0.013057  -0.002234   0.000048  -0.003105  -0.002724
   55  H  3  Z    0.004897  -0.007230   0.000099  -0.004746   0.012639
   56  H  3  S    3.155617   1.716422  -0.057720   0.155475   2.717138
   57  H  3  X    0.021741   0.022156   0.524166   0.007518  -0.033274
   58  H  3  Y    0.591580   0.628332  -0.028354  -0.237357  -0.716675
   59  H  3  Z    0.160851  -0.196384  -0.010003   0.220405  -0.233726
   60  H  4  S   -0.162012   0.215892   0.000656   0.013411  -0.017038
   61  H  4  S   -0.631739   3.601090  -0.005899  -0.762342  -1.146499
   62  H  4  X    0.000531  -0.000026  -0.000622  -0.000010  -0.000368
   63  H  4  Y    0.019927   0.001955  -0.000197  -0.000093  -0.015522
   64  H  4  Z    0.022072  -0.001341  -0.000445   0.024446   0.008903
   65  H  4  S   -2.007946   0.898246   0.007534  -0.459972  -0.890964
   66  H  4  X    0.000237   0.002765  -0.731022  -0.028999  -0.015937
   67  H  4  Y    0.136525   0.194917   0.012925  -0.336425  -0.588681
   68  H  4  Z    0.217996   0.138952  -0.008337   0.422513   0.839054
   69  H  5  S    0.029196  -0.054010  -0.003368   0.156397  -0.048660
   70  H  5  S    1.518401   1.107433  -0.090612   2.751438  -1.925934
   71  H  5  X   -0.000326   0.000092   0.003103   0.000446   0.000318
   72  H  5  Y   -0.015765   0.001826  -0.000204   0.016471   0.012573
   73  H  5  Z   -0.008064   0.015948   0.000389  -0.017841   0.017960
   74  H  5  S   -1.448070  -3.067357   0.053461   0.017632  -2.750034
   75  H  5  X   -0.005224   0.004820   0.833339   0.020988   0.019531
   76  H  5  Y   -0.471068  -0.054512  -0.010512  -0.028202   0.833330
   77  H  5  Z   -0.042333   0.605758   0.000080  -0.519557   0.867786

                     26         27         28         29         30
                    0.3082     0.3145     0.3552     0.3772     0.4045
                     A          A          A          A          A   
    1  C  1  S    0.000647  -0.030277  -0.000273  -0.019871   0.040029
    2  C  1  S    0.002953  -0.127302   0.000175  -0.059016  -0.017104
    3  C  1  S   -0.025375   1.383520   0.016836   1.777315  -2.100367
    4  C  1  X   -0.058365  -0.006426  -0.246007   0.007630   0.001697
    5  C  1  Y    0.004206  -0.139755   0.006120   0.279404   0.054955
    6  C  1  Z    0.005847  -0.253855  -0.000355  -0.076266  -0.000497
    7  C  1  X   -0.346437   0.002463  -0.966937   0.075468   0.008041
    8  C  1  Y   -0.003257   0.215449   0.020551   3.104579   0.288563
    9  C  1  Z   -0.060889   2.238576   0.017281   1.712151  -1.791883
   10  C  1 XX   -0.000965  -0.026535   0.000233  -0.013528   0.018267
   11  C  1 YY    0.002081   0.002022  -0.000404   0.006414   0.008518
   12  C  1 ZZ   -0.001116   0.024513   0.000171   0.007113  -0.026785
   13  C  1 XY   -0.034764   0.000326   0.011144   0.000250  -0.000231
   14  C  1 XZ   -0.018309  -0.001046  -0.029611  -0.001134  -0.000236
   15  C  1 YZ    0.001265  -0.023244   0.000750  -0.050426  -0.010036
   16  C  1  S   -0.214621   5.287793   0.027355   0.069796  -6.269990
   17  C  1  X   -0.098556  -0.092923  -1.112401   0.113854   0.042276
   18  C  1  Y    0.092028  -3.606455   0.034633   4.853568   1.573043
   19  C  1  Z   -0.077495   1.477749   0.001591  -0.088408  -1.786764
   20  C  1 XX    0.028280  -0.079695  -0.011897  -0.074884   0.529709
   21  C  1 YY   -0.013076  -0.555804  -0.000164  -0.331294   0.608902
   22  C  1 ZZ   -0.015204   0.635499   0.012062   0.406177  -1.138611
   23  C  1 XY    0.517072  -0.003059  -0.227464  -0.010933  -0.004661
   24  C  1 XZ    0.001148   0.031190   0.078861   0.004854   0.005229
   25  C  1 YZ   -0.028483   1.050081  -0.003483   0.294980   0.275217
   26  C  2  S   -0.000899   0.026876   0.000061   0.010023   0.032212
   27  C  2  S   -0.003538   0.108016   0.000438   0.027773  -0.012993
   28  C  2  S    0.042122  -1.518334  -0.017306  -0.528033  -0.285531
   29  C  2  X   -0.112573  -0.002343   0.044748   0.001066  -0.005835
   30  C  2  Y    0.002364   0.034604   0.000450   0.034595  -0.203929
   31  C  2  Z    0.000915   0.020844  -0.000976  -0.018657   0.035103
   32  C  2  X   -0.635838  -0.028868   0.443405   0.013658  -0.068953
   33  C  2  Y    0.035779  -0.514786   0.002477   0.192898  -2.253797
   34  C  2  Z   -0.071660   2.936063   0.019656   2.003756  -2.935869
   35  C  2 XX    0.001124   0.028079  -0.000478   0.007184   0.005527
   36  C  2 YY   -0.003146   0.051418   0.000461   0.011062  -0.020985
   37  C  2 ZZ    0.002021  -0.079497   0.000017  -0.018245   0.015458
   38  C  2 XY    0.035402   0.001607  -0.010257   0.000121  -0.001143
   39  C  2 XZ    0.024773  -0.000117   0.015174   0.000166  -0.000272
   40  C  2 YZ   -0.000263  -0.021107  -0.000220   0.006432  -0.007523
   41  C  2  S    0.174932  -4.220415   0.013656   0.659366   0.711783
   42  C  2  X   -0.467250   0.068650   0.536991  -0.009918  -0.085519
   43  C  2  Y   -0.060240   2.623491  -0.006083  -0.638109  -2.744376
   44  C  2  Z   -0.117500   3.937283  -0.004022   0.592177  -1.908685
   45  C  2 XX   -0.026422   0.349918  -0.010406   0.145390   0.901152
   46  C  2 YY    0.010365   0.370119   0.014727   0.769308  -0.957663
   47  C  2 ZZ    0.016057  -0.720037  -0.004321  -0.914698   0.056511
   48  C  2 XY   -0.362968  -0.005866  -0.179722   0.018994  -0.068056
   49  C  2 XZ   -0.166116   0.031428   0.328592   0.017062   0.002958
   50  C  2 YZ   -0.023875   1.140866  -0.009756   0.723682   0.123872
   51  H  3  S    0.001359  -0.022112  -0.000228   0.054761  -0.034214
   52  H  3  S    0.074154  -2.890703  -0.037385  -3.277456   6.758079
   53  H  3  X    0.004933   0.000017   0.000126  -0.000009   0.000029
   54  H  3  Y   -0.000110  -0.000719  -0.000032   0.000562   0.002009
   55  H  3  Z    0.000938  -0.034471  -0.000052  -0.009401   0.008898
   56  H  3  S    0.096724  -2.879178  -0.003144  -0.554071   3.003695
   57  H  3  X    1.521446   0.068449  -0.385822   0.019896  -0.051699
   58  H  3  Y   -0.071479   1.022712   0.014070   0.475375  -1.419803
   59  H  3  Z    0.022962  -1.074655   0.010734   0.748640  -0.887894
   60  H  4  S    0.002285  -0.052012  -0.000518   0.026221   0.039422
   61  H  4  S    0.011561  -0.603694   0.002541   4.328458   0.144204
   62  H  4  X    0.005047  -0.000049  -0.011887   0.000155   0.000183
   63  H  4  Y   -0.000312  -0.000937   0.000217   0.004968   0.003897
   64  H  4  Z   -0.000125   0.004314  -0.000013   0.002796   0.000609
   65  H  4  S    0.026128  -1.338865   0.005595   4.140954   0.204566
   66  H  4  X    1.287562   0.031632   0.716429  -0.000866  -0.015901
   67  H  4  Y   -0.042151   0.133285  -0.017347  -0.092501  -0.296418
   68  H  4  Z   -0.017609   0.793063   0.004801   1.547070  -0.435128
   69  H  5  S   -0.000119   0.045270  -0.000910   0.009677   0.021397
   70  H  5  S   -0.070387   3.284116  -0.007077  -2.732776   0.548437
   71  H  5  X   -0.006430   0.000020  -0.009989   0.000377  -0.000073
   72  H  5  Y    0.000148   0.008309   0.000223   0.014457   0.000534
   73  H  5  Z    0.000896  -0.032693   0.000059  -0.018071   0.001470
   74  H  5  S   -0.105730   3.642771  -0.018518  -3.875827  -0.947724
   75  H  5  X   -0.462423  -0.009717   1.621642  -0.015140   0.005020
   76  H  5  Y    0.030499  -0.532192  -0.035874  -0.384237  -0.220203
   77  H  5  Z   -0.000961   0.421877   0.001974  -0.916175  -0.191041

                     31         32         33         34         35
                    0.4382     0.4436     0.4480     0.4762     0.4837
                     A          A          A          A          A   
    1  C  1  S    0.065591   0.012359  -0.001754   0.020305  -0.002193
    2  C  1  S    0.030946  -0.049341   0.001257  -0.027240  -0.016725
    3  C  1  S   -4.259042   0.833210   0.009438  -2.094012   0.095520
    4  C  1  X    0.002385   0.016022   0.250352  -0.005819   0.050730
    5  C  1  Y    0.027635  -0.065288  -0.003606  -0.130282   0.024822
    6  C  1  Z    0.082615  -0.000357  -0.005937  -0.022362  -0.049521
    7  C  1  X    0.010793   0.146020   1.805921  -0.100112   0.339823
    8  C  1  Y   -0.620131   1.234855  -0.197559  -3.536063  -0.253923
    9  C  1  Z    5.870037   3.825760  -0.289418  -0.826392  -0.394166
   10  C  1 XX    0.018008  -0.008641   0.000166  -0.013219  -0.001497
   11  C  1 YY   -0.026374  -0.005451   0.000634   0.012536   0.000894
   12  C  1 ZZ    0.008366   0.014092  -0.000801   0.000683   0.000603
   13  C  1 XY   -0.001154   0.000329   0.002176   0.000650   0.005184
   14  C  1 XZ    0.000254  -0.000173  -0.013803   0.000137   0.031460
   15  C  1 YZ    0.020045   0.011638   0.000241  -0.011351   0.007817
   16  C  1  S   -6.773237  -4.054159   0.431032   3.786073   0.709103
   17  C  1  X    0.002408   0.107237   1.139155  -0.028997  -0.155648
   18  C  1  Y   -0.592413   1.631183  -0.166105  -0.756370  -0.083078
   19  C  1  Z    1.124124   0.222826  -0.004579   0.786129   0.011368
   20  C  1 XX    0.577864   0.267407  -0.046354  -0.474475  -0.037050
   21  C  1 YY   -1.918713  -0.791638   0.063986   0.464560  -0.015974
   22  C  1 ZZ    1.340849   0.524231  -0.017632   0.009915   0.053024
   23  C  1 XY   -0.062731  -0.049861  -0.259188   0.039646   0.320983
   24  C  1 XZ    0.010906  -0.094290  -0.114024  -0.011880  -1.437700
   25  C  1 YZ    0.626648  -2.633359   0.162129  -0.126506   0.197623
   26  C  2  S    0.062325   0.029095  -0.001708   0.055159   0.000062
   27  C  2  S    0.000077  -0.024374   0.003779   0.017438   0.017634
   28  C  2  S   -6.377403  -2.547029   0.161961  -4.416007   0.203272
   29  C  2  X    0.001547  -0.009879  -0.254740  -0.000835   0.251274
   30  C  2  Y    0.126781   0.066951   0.001917  -0.135106   0.000586
   31  C  2  Z    0.029794  -0.082301   0.000468  -0.184334  -0.033414
   32  C  2  X   -0.026050   0.069642  -0.693362  -0.045434   1.526092
   33  C  2  Y   -0.742431   3.195171  -0.160852  -1.504237  -0.112174
   34  C  2  Z    3.019579   2.842662  -0.206313  -2.402743  -0.357989
   35  C  2 XX    0.033016  -0.000523   0.000178  -0.009824   0.002852
   36  C  2 YY   -0.012835   0.026972  -0.001765   0.016116  -0.002272
   37  C  2 ZZ   -0.020181  -0.026449   0.001587  -0.006292  -0.000580
   38  C  2 XY   -0.001442   0.001224   0.004458   0.000904  -0.003914
   39  C  2 XZ   -0.000680   0.000562  -0.015229   0.000719  -0.002080
   40  C  2 YZ   -0.021210   0.054729  -0.003072   0.012686  -0.005821
   41  C  2  S   -0.786341   1.397193  -0.186439  -4.851522  -0.596963
   42  C  2  X   -0.000645  -0.057068  -1.179898   0.002229   0.526719
   43  C  2  Y    0.505533   0.039506   0.039391  -0.265430  -0.034704
   44  C  2  Z   -0.217599  -0.146328   0.034045   0.158769   0.051249
   45  C  2 XX    0.039516   0.222310  -0.045562  -0.130654   0.100263
   46  C  2 YY    0.500861   1.372172  -0.040206   0.101746   0.020974
   47  C  2 ZZ   -0.540378  -1.594482   0.085768   0.028908  -0.121237
   48  C  2 XY    0.005705   0.021103  -0.660408   0.009644   0.973868
   49  C  2 XZ   -0.000949   0.048114   1.054259  -0.029723   0.313578
   50  C  2 YZ   -0.372114  -0.820712   0.007377  -0.374683  -0.155277
   51  H  3  S   -0.095155   0.186494  -0.012004   0.126311  -0.029873
   52  H  3  S    1.242616  -3.189635   0.216628   6.590941   0.303115
   53  H  3  X   -0.000574  -0.000336  -0.017118   0.001055   0.022295
   54  H  3  Y   -0.018900   0.013003  -0.000052   0.028907  -0.002396
   55  H  3  Z   -0.020938   0.025561  -0.001681   0.002583  -0.005590
   56  H  3  S   -0.044301  -0.198606   0.008031   0.926908   0.067853
   57  H  3  X   -0.005581   0.020582   0.746016  -0.105346  -1.407288
   58  H  3  Y   -0.421837  -0.189536  -0.031439  -3.275171  -0.091601
   59  H  3  Z   -0.106945   1.447052  -0.069115  -0.988425   0.271353
   60  H  4  S   -0.041473  -0.084156   0.006840   0.016311   0.033321
   61  H  4  S    6.097650   9.427626  -0.750869  -5.708622  -0.693617
   62  H  4  X    0.000194   0.000601   0.016945  -0.000100  -0.004517
   63  H  4  Y    0.007625  -0.018123   0.000600   0.004088  -0.000839
   64  H  4  Z   -0.005907  -0.011705   0.000121  -0.001223  -0.007339
   65  H  4  S    1.418807   1.896818  -0.159560  -0.882174  -0.077462
   66  H  4  X    0.026690  -0.010517  -1.303985  -0.025869  -0.174888
   67  H  4  Y    1.102934   3.013652  -0.196854  -1.583999  -0.147282
   68  H  4  Z    1.834516   0.136993  -0.027868  -1.166672   0.074081
   69  H  5  S   -0.177078   0.089734  -0.005232   0.106163  -0.022976
   70  H  5  S    9.085895  -2.535622   0.171345   4.493726   0.076480
   71  H  5  X   -0.000129   0.000573   0.008219   0.000527   0.013726
   72  H  5  Y   -0.006730  -0.005747   0.000224   0.021755  -0.003117
   73  H  5  Z    0.007326  -0.004183   0.000407   0.003055   0.001831
   74  H  5  S    1.545036  -0.517883   0.047089   0.762476  -0.049906
   75  H  5  X   -0.048868  -0.005695  -0.438111  -0.063112  -1.167407
   76  H  5  Y   -2.120353   1.492948  -0.085311  -2.461982   0.104635
   77  H  5  Z    1.128249   0.990453  -0.033967   1.415944   0.056653

                     36         37         38         39         40
                    0.4860     0.4933     0.5047     0.5567     0.5625
                     A          A          A          A          A   
    1  C  1  S    0.010036   0.104220  -0.025906   0.079637   0.006904
    2  C  1  S   -0.106638  -0.006067  -0.027200   0.022522   0.002862
    3  C  1  S   -1.448299  -8.239688   4.340243  -8.482332  -0.685020
    4  C  1  X   -0.006366   0.003396  -0.003746  -0.002888   0.070167
    5  C  1  Y    0.172273   0.006579  -0.112255  -0.064878  -0.003595
    6  C  1  Z   -0.249013   0.322138  -0.087128  -0.144677  -0.013319
    7  C  1  X   -0.099490  -0.004211  -0.198390  -0.103989   1.355401
    8  C  1  Y   -0.473734  -1.038110  -7.115999  -0.152601  -0.021102
    9  C  1  Z   -2.784193  -2.677910   1.443711  -1.738259  -0.206947
   10  C  1 XX   -0.010770   0.008248  -0.006160   0.026764   0.002659
   11  C  1 YY    0.012682   0.032216  -0.009123  -0.007889  -0.001141
   12  C  1 ZZ   -0.001911  -0.040464   0.015283  -0.018874  -0.001518
   13  C  1 XY   -0.000061   0.000758  -0.000216  -0.001385   0.002524
   14  C  1 XZ   -0.003071   0.000803  -0.000206   0.003836  -0.055522
   15  C  1 YZ    0.055775  -0.002040   0.013148  -0.028202  -0.000859
   16  C  1  S    4.453485  -4.923274  -4.836191 -14.725014  -1.371926
   17  C  1  X    0.009125  -0.014231  -0.046298   0.003510   0.225240
   18  C  1  Y   -0.151390  -0.610952  -1.894727   0.953994   0.077581
   19  C  1  Z    0.316689  -0.190597  -0.983939  -4.882971  -0.455956
   20  C  1 XX   -0.297397   0.291865   0.558514  -0.034618   0.080455
   21  C  1 YY    0.465109   2.670973  -0.680862  -1.789022  -0.206382
   22  C  1 ZZ   -0.167712  -2.962837   0.122348   1.823639   0.125927
   23  C  1 XY   -0.021107   0.075888  -0.035354  -0.170902   1.603819
   24  C  1 XZ    0.239542  -0.034830   0.039189  -0.144389   2.156853
   25  C  1 YZ    0.773465   0.417579   0.279564   0.152734  -0.017697
   26  C  2  S   -0.006338  -0.087807  -0.030382  -0.052000  -0.004723
   27  C  2  S    0.093767  -0.080938  -0.009867   0.134195   0.010797
   28  C  2  S    2.258806  10.045875   2.698714   3.003195   0.303945
   29  C  2  X   -0.032313   0.005614  -0.002595   0.029313  -0.318373
   30  C  2  Y    0.073321  -0.024567  -0.018717   0.003821   0.005999
   31  C  2  Z   -0.196841   0.173664  -0.000912  -0.086654  -0.006482
   32  C  2  X   -0.237224   0.080883   0.065900   0.107402  -1.409413
   33  C  2  Y   -0.500499   1.065999   3.252274   0.602706   0.051592
   34  C  2  Z   -2.971323  -3.093739   2.596433  -1.595348  -0.184113
   35  C  2 XX    0.012600  -0.050034   0.003006   0.010911   0.001822
   36  C  2 YY   -0.014266   0.004371   0.006977  -0.026991  -0.003448
   37  C  2 ZZ    0.001665   0.045663  -0.009983   0.016080   0.001626
   38  C  2 XY   -0.000704   0.001667   0.000389  -0.003630   0.027289
   39  C  2 XZ   -0.000316   0.000089   0.000605   0.001676  -0.032886
   40  C  2 YZ   -0.032007   0.006542   0.010054  -0.013316  -0.000387
   41  C  2  S   -4.213584   5.204718   5.828402  15.676206   1.478788
   42  C  2  X   -0.078142   0.024860   0.023043  -0.001553  -0.388427
   43  C  2  Y   -0.230572   0.459796   0.968271  -1.212885  -0.094291
   44  C  2  Z    0.343039  -0.701537  -0.711924  -3.847771  -0.364873
   45  C  2 XX    0.242625  -0.329821  -0.026023  -0.386543  -0.035874
   46  C  2 YY    0.332468  -0.516939   1.469152  -0.963190  -0.080781
   47  C  2 ZZ   -0.575094   0.846760  -1.443129   1.349733   0.116655
   48  C  2 XY   -0.140429   0.022029   0.023964  -0.024726   0.052251
   49  C  2 XZ   -0.100476   0.021749  -0.031665  -0.116784   1.893530
   50  C  2 YZ   -0.960456   0.226829  -0.329141   0.998893   0.058392
   51  H  3  S   -0.185918  -0.027444   0.047618  -0.152917  -0.010176
   52  H  3  S    2.330875  -3.802136  -7.328900  -2.856802  -0.234968
   53  H  3  X   -0.003483   0.000870  -0.000121  -0.000701  -0.002065
[...]
 II,JST,KST,LST =  2  1  1  1 NREC =         1 INTLOC =    1
 II,JST,KST,LST =  3  1  1  1 NREC =         1 INTLOC =    1
 II,JST,KST,LST =  4  1  1  1 NREC =         1 INTLOC =    1
 II,JST,KST,LST =  5  1  1  1 NREC =         1 INTLOC =    1
 II,JST,KST,LST =  6  1  1  1 NREC =         1 INTLOC =    1
 II,JST,KST,LST =  7  1  1  1 NREC =         1 INTLOC =    4
 II,JST,KST,LST =  8  1  1  1 NREC =         1 INTLOC =   49
 II,JST,KST,LST =  9  1  1  1 NREC =         1 INTLOC =   49
 II,JST,KST,LST = 10  1  1  1 NREC =         1 INTLOC =   64
 II,JST,KST,LST = 11  1  1  1 NREC =         1 INTLOC =   69
 II,JST,KST,LST = 12  1  1  1 NREC =         1 INTLOC =  107
 II,JST,KST,LST = 13  1  1  1 NREC =         1 INTLOC = 1433
 II,JST,KST,LST = 14  1  1  1 NREC =         1 INTLOC = 3288
 II,JST,KST,LST = 15  1  1  1 NREC =         1 INTLOC = 3288
 II,JST,KST,LST = 16  1  1  1 NREC =         1 INTLOC = 3288
 II,JST,KST,LST = 17  1  1  1 NREC =         1 INTLOC = 3288
 II,JST,KST,LST = 18  1  1  1 NREC =         1 INTLOC = 4434
 II,JST,KST,LST = 19  1  1  1 NREC =         1 INTLOC =10779
 II,JST,KST,LST = 20  1  1  1 NREC =         1 INTLOC =10779
 II,JST,KST,LST = 21  1  1  1 NREC =         2 INTLOC = 1815
 II,JST,KST,LST = 22  1  1  1 NREC =         2 INTLOC =13890
 II,JST,KST,LST = 23  1  1  1 NREC =         4 INTLOC = 4068
 II,JST,KST,LST = 24  1  1  1 NREC =         4 INTLOC = 4068
 II,JST,KST,LST = 25  1  1  1 NREC =         5 INTLOC =10635
 II,JST,KST,LST = 26  1  1  1 NREC =         5 INTLOC =10635
 II,JST,KST,LST = 27  1  1  1 NREC =         6 INTLOC =14702
 II,JST,KST,LST = 28  1  1  1 NREC =         6 INTLOC =14702
 II,JST,KST,LST = 29  1  1  1 NREC =         8 INTLOC =13664
 II,JST,KST,LST = 30  1  1  1 NREC =        10 INTLOC =  995
 II,JST,KST,LST = 31  1  1  1 NREC =        10 INTLOC =  995
 II,JST,KST,LST = 32  1  1  1 NREC =        11 INTLOC = 2321
 II,JST,KST,LST = 33  1  1  1 NREC =        12 INTLOC = 4268
 II,JST,KST,LST = 34  1  1  1 NREC =        13 INTLOC = 5374
 II,JST,KST,LST = 35  1  1  1 NREC =        14 INTLOC = 2185
 II,JST,KST,LST = 36  1  1  1 NREC =        14 INTLOC = 2185
 II,JST,KST,LST = 37  1  1  1 NREC =        14 INTLOC =10362
 II,JST,KST,LST = 38  1  1  1 NREC =        16 INTLOC = 7652
 II,JST,KST,LST = 39  1  1  1 NREC =        20 INTLOC =11805
 II,JST,KST,LST = 40  1  1  1 NREC =        27 INTLOC =12580
 II,JST,KST,LST = 41  1  1  1 NREC =        28 INTLOC =11607
 II,JST,KST,LST = 42  1  1  1 NREC =        33 INTLOC =11006
 II,JST,KST,LST = 43  1  1  1 NREC =        48 INTLOC =13819
 II,JST,KST,LST = 44  1  1  1 NREC =        48 INTLOC =13819
 II,JST,KST,LST = 45  1  1  1 NREC =        51 INTLOC = 6855
 II,JST,KST,LST = 46  1  1  1 NREC =        51 INTLOC = 6855
 II,JST,KST,LST = 47  1  1  1 NREC =        53 INTLOC = 2339
 II,JST,KST,LST = 48  1  1  1 NREC =        62 INTLOC = 2104
 II,JST,KST,LST = 49  1  1  1 NREC =        74 INTLOC = 5224
 II,JST,KST,LST = 50  1  1  1 NREC =        75 INTLOC = 6693
 II,JST,KST,LST = 51  1  1  1 NREC =        84 INTLOC =  798
 II,JST,KST,LST = 52  1  1  1 NREC =       114 INTLOC = 9354
 II,JST,KST,LST = 53  1  1  1 NREC =       115 INTLOC = 9096
 II,JST,KST,LST = 54  1  1  1 NREC =       121 INTLOC =10539
 II,JST,KST,LST = 55  1  1  1 NREC =       136 INTLOC = 4467
 II,JST,KST,LST = 56  1  1  1 NREC =       139 INTLOC = 8230
 II,JST,KST,LST = 57  1  1  1 NREC =       160 INTLOC =10277
 II,JST,KST,LST = 58  1  1  1 NREC =       165 INTLOC = 8275
 II,JST,KST,LST = 59  1  1  1 NREC =       167 INTLOC =  916
 II,JST,KST,LST = 60  1  1  1 NREC =       184 INTLOC = 7996
 II,JST,KST,LST = 61  1  1  1 NREC =       187 INTLOC =12101
 II,JST,KST,LST = 62  1  1  1 NREC =       195 INTLOC = 1484
 II,JST,KST,LST = 63  1  1  1 NREC =       201 INTLOC = 9720
 II,JST,KST,LST = 64  1  1  1 NREC =       207 INTLOC =13532
 II,JST,KST,LST = 65  1  1  1 NREC =       230 INTLOC =12039
 II,JST,KST,LST = 66  1  1  1 NREC =       235 INTLOC = 1421
 SCHWARZ INEQUALITY TEST SKIPPED       74633 INTEGRAL BLOCKS.
 TOTAL NUMBER OF NONZERO TWO-ELECTRON INTEGRALS =            65557155
       4380 INTEGRAL RECORDS WERE STORED ON DISK FILE  8.
  ...... END OF TWO-ELECTRON INTEGRALS .....
 CPU     0: STEP CPU TIME=     0.26 TOTAL CPU TIME=         24.3 (      0.4 MIN)
 TOTAL WALL CLOCK TIME=         24.7 SECONDS, CPU UTILIZATION IS    98.42%

          ---------------------------------------------
          MONOMER ELECTROSTATIC INTERACTION (OWN BASIS)
          ---------------------------------------------

          -------------
          GUESS OPTIONS
          -------------
          GUESS =MOSAVED           NORB  =       0          NORDER=       0
          MIX   =       F          PRTMO =       F          PUNMO =       F
          TOLZ  = 1.0E-08          TOLE  = 1.0E-05
          SYMDEN=       F          PURIFY=       F

 INITIAL GUESS ORBITALS GENERATED BY MOSAVED  ROUTINE.

 STATISTICS FOR GENERATION OF SYMMETRY ORBITAL -Q- MATRIX
 NUMBER OF CARTESIAN ATOMIC ORBITALS=        154
 NUMBER OF SPHERICAL CONTAMINANTS DROPPED=     8
 NUMBER OF LINEARLY DEPENDENT MOS DROPPED=     0
 TOTAL NUMBER OF MOS IN VARIATION SPACE=     146
 ...... END OF INITIAL ORBITAL SELECTION ......
 CPU     0: STEP CPU TIME=     0.01 TOTAL CPU TIME=         24.3 (      0.4 MIN)
 TOTAL WALL CLOCK TIME=         24.7 SECONDS, CPU UTILIZATION IS    98.42%

          ---------------------------
                  UHF SCF CALCULATION
          ---------------------------

 FINAL UHF ENERGY IS     -155.3153499234 AFTER   1 ITERATIONS
 ...... END OF UHF CALCULATION ......
 CPU     0: STEP CPU TIME=     0.08 TOTAL CPU TIME=         24.3 (      0.4 MIN)
 TOTAL WALL CLOCK TIME=         24.8 SECONDS, CPU UTILIZATION IS    98.37%

          -------------
          GUESS OPTIONS
          -------------
          GUESS =MOSAVED           NORB  =       0          NORDER=       0
          MIX   =       F          PRTMO =       F          PUNMO =       F
          TOLZ  = 1.0E-08          TOLE  = 1.0E-05
          SYMDEN=       F          PURIFY=       F

 INITIAL GUESS ORBITALS GENERATED BY MOSAVED  ROUTINE.

 STATISTICS FOR GENERATION OF SYMMETRY ORBITAL -Q- MATRIX
 NUMBER OF CARTESIAN ATOMIC ORBITALS=        154
 NUMBER OF SPHERICAL CONTAMINANTS DROPPED=     8
 NUMBER OF LINEARLY DEPENDENT MOS DROPPED=     0
 TOTAL NUMBER OF MOS IN VARIATION SPACE=     146
 ...... END OF INITIAL ORBITAL SELECTION ......
 CPU     0: STEP CPU TIME=     0.01 TOTAL CPU TIME=         24.4 (      0.4 MIN)
 TOTAL WALL CLOCK TIME=         24.8 SECONDS, CPU UTILIZATION IS    98.37%

          ---------------------------
                  UHF SCF CALCULATION
          ---------------------------

 DIRECT SCF CALCULATION, SCHWRZ=T   FDIFF=T
 SCHWARZ INEQUALITY OVERHEAD:     11926 INTEGRALS, T=        0.00

 FINAL UHF ENERGY IS     -331.0260107270 AFTER   1 ITERATIONS
 ...... END OF UHF CALCULATION ......
 CPU     0: STEP CPU TIME=     0.26 TOTAL CPU TIME=         24.6 (      0.4 MIN)
 TOTAL WALL CLOCK TIME=         25.0 SECONDS, CPU UTILIZATION IS    98.36%

 XEDA STEP ENERGY SUMMATION
 ETOT =       -155.31534992     ENUC =        102.31523852
 EEXCH=        -22.95101221

          --------------------------------------------------
          MONOMER EXCHANGE-REPULSION INTERACTION (OWN BASIS)
          --------------------------------------------------

          -------------
          GUESS OPTIONS
          -------------
          GUESS =MOSAVED           NORB  =       0          NORDER=       0
          MIX   =       F          PRTMO =       F          PUNMO =       F
          TOLZ  = 1.0E-08          TOLE  = 1.0E-05
          SYMDEN=       F          PURIFY=       F

 INITIAL GUESS ORBITALS GENERATED BY MOSAVED  ROUTINE.

 STATISTICS FOR GENERATION OF SYMMETRY ORBITAL -Q- MATRIX
 NUMBER OF CARTESIAN ATOMIC ORBITALS=        154
 NUMBER OF SPHERICAL CONTAMINANTS DROPPED=     8
 NUMBER OF LINEARLY DEPENDENT MOS DROPPED=     0
 TOTAL NUMBER OF MOS IN VARIATION SPACE=     146
 ...... END OF INITIAL ORBITAL SELECTION ......
 CPU     0: STEP CPU TIME=     0.01 TOTAL CPU TIME=         24.6 (      0.4 MIN)
 TOTAL WALL CLOCK TIME=         25.0 SECONDS, CPU UTILIZATION IS    98.36%

          ---------------------------
                  UHF SCF CALCULATION
          ---------------------------

 FINAL UHF ENERGY IS     -154.6229622626 AFTER   1 ITERATIONS
 ...... END OF UHF CALCULATION ......
 CPU     0: STEP CPU TIME=     0.07 TOTAL CPU TIME=         24.7 (      0.4 MIN)
 TOTAL WALL CLOCK TIME=         25.1 SECONDS, CPU UTILIZATION IS    98.32%

 XEDA STEP ENERGY SUMMATION
 ETOT =       -154.62296226     ENUC =        102.31523852

          ---------------------------------------------
          MONOMER ELECTROSTATIC INTERACTION (ALL BASIS)
          ---------------------------------------------

          -------------
          GUESS OPTIONS
          -------------
          GUESS =MOSAVED           NORB  =       0          NORDER=       0
          MIX   =       F          PRTMO =       F          PUNMO =       F
          TOLZ  = 1.0E-08          TOLE  = 1.0E-05
          SYMDEN=       F          PURIFY=       F

 INITIAL GUESS ORBITALS GENERATED BY MOSAVED  ROUTINE.

 STATISTICS FOR GENERATION OF SYMMETRY ORBITAL -Q- MATRIX
 NUMBER OF CARTESIAN ATOMIC ORBITALS=        154
 NUMBER OF SPHERICAL CONTAMINANTS DROPPED=     8
 NUMBER OF LINEARLY DEPENDENT MOS DROPPED=     0
 TOTAL NUMBER OF MOS IN VARIATION SPACE=     146
 ...... END OF INITIAL ORBITAL SELECTION ......
 CPU     0: STEP CPU TIME=     0.01 TOTAL CPU TIME=         24.7 (      0.4 MIN)
 TOTAL WALL CLOCK TIME=         25.1 SECONDS, CPU UTILIZATION IS    98.32%

          ---------------------------
                  UHF SCF CALCULATION
          ---------------------------

 FINAL UHF ENERGY IS     -155.3210785465 AFTER   1 ITERATIONS
 ...... END OF UHF CALCULATION ......
 CPU     0: STEP CPU TIME=     0.07 TOTAL CPU TIME=         24.8 (      0.4 MIN)
 TOTAL WALL CLOCK TIME=         25.2 SECONDS, CPU UTILIZATION IS    98.28%

          -------------
          GUESS OPTIONS
          -------------
          GUESS =MOSAVED           NORB  =       0          NORDER=       0
          MIX   =       F          PRTMO =       F          PUNMO =       F
          TOLZ  = 1.0E-08          TOLE  = 1.0E-05
          SYMDEN=       F          PURIFY=       F

 INITIAL GUESS ORBITALS GENERATED BY MOSAVED  ROUTINE.

 STATISTICS FOR GENERATION OF SYMMETRY ORBITAL -Q- MATRIX
 NUMBER OF CARTESIAN ATOMIC ORBITALS=        154
 NUMBER OF SPHERICAL CONTAMINANTS DROPPED=     8
 NUMBER OF LINEARLY DEPENDENT MOS DROPPED=     0
 TOTAL NUMBER OF MOS IN VARIATION SPACE=     146
 ...... END OF INITIAL ORBITAL SELECTION ......
 CPU     0: STEP CPU TIME=     0.01 TOTAL CPU TIME=         24.8 (      0.4 MIN)
 TOTAL WALL CLOCK TIME=         25.2 SECONDS, CPU UTILIZATION IS    98.29%

          ---------------------------
                  UHF SCF CALCULATION
          ---------------------------

 DIRECT SCF CALCULATION, SCHWRZ=T   FDIFF=T
 SCHWARZ INEQUALITY OVERHEAD:     11926 INTEGRALS, T=        0.00

 FINAL UHF ENERGY IS     -331.0488657883 AFTER   1 ITERATIONS
 ...... END OF UHF CALCULATION ......
 CPU     0: STEP CPU TIME=     0.27 TOTAL CPU TIME=         25.1 (      0.4 MIN)
 TOTAL WALL CLOCK TIME=         25.5 SECONDS, CPU UTILIZATION IS    98.27%

 XEDA STEP ENERGY SUMMATION
 ETOT =       -155.32107855     ENUC =        102.31523852
 EEXCH=        -22.95136628

          --------------------------------------------------
          MONOMER EXCHANGE-REPULSION INTERACTION (ALL BASIS)
          --------------------------------------------------

          -------------
          GUESS OPTIONS
          -------------
          GUESS =MOSAVED           NORB  =       0          NORDER=       0
          MIX   =       F          PRTMO =       F          PUNMO =       F
          TOLZ  = 1.0E-08          TOLE  = 1.0E-05
          SYMDEN=       F          PURIFY=       F

 INITIAL GUESS ORBITALS GENERATED BY MOSAVED  ROUTINE.

 STATISTICS FOR GENERATION OF SYMMETRY ORBITAL -Q- MATRIX
 NUMBER OF CARTESIAN ATOMIC ORBITALS=        154
 NUMBER OF SPHERICAL CONTAMINANTS DROPPED=     8
 NUMBER OF LINEARLY DEPENDENT MOS DROPPED=     0
 TOTAL NUMBER OF MOS IN VARIATION SPACE=     146
 ...... END OF INITIAL ORBITAL SELECTION ......
 CPU     0: STEP CPU TIME=     0.01 TOTAL CPU TIME=         25.1 (      0.4 MIN)
 TOTAL WALL CLOCK TIME=         25.5 SECONDS, CPU UTILIZATION IS    98.27%

          ---------------------------
                  UHF SCF CALCULATION
          ---------------------------

 FINAL UHF ENERGY IS     -154.6280190006 AFTER   1 ITERATIONS
 ...... END OF UHF CALCULATION ......
 CPU     0: STEP CPU TIME=     0.07 TOTAL CPU TIME=         25.1 (      0.4 MIN)
 TOTAL WALL CLOCK TIME=         25.6 SECONDS, CPU UTILIZATION IS    98.23%

 XEDA STEP ENERGY SUMMATION
 ETOT =       -154.62801900     ENUC =        102.31523852

          --------------------------------
          RESULTS OF INTERACTION ANALYSIS
          --------------------------------

     ENERGY TERMS
     T   ELECTRON KINETIC AND COULOMB POTENTIAL
     X   E-E EXCHANGE COMBINE WITH DIAGNANAL VALUE
     N   NUCLEUS-NUCLEUS REPULSION ENERGY

 --------------
 MONOMER ENERGY
 --------------

 MONOMER    1

                   OWN BASIS           ALL BASIS

 T              -93.91146510        -93.91154079
 X              -11.31149729        -11.31198878
 N               27.84548842         27.84548842
 EC              -0.47439841         -0.47502094
 E              -77.85187238        -77.85306209

 MONOMER    2

                   OWN BASIS           ALL BASIS

 T              -93.91133936        -93.91140889
 X              -11.31150214        -11.31199487
 N               27.84536759         27.84536759
 EC              -0.47439436         -0.47502505
 E              -77.85186827        -77.85306123

 ------------------------------------------------------------
 SUPER MOLECULE ENERGY  USING NON-ANTISYMMETRIC WAVEFUNCTION
 (ELECTROSTATIC ENERGY: T N CHANGE)
 ------------------------------------------------------------

              FROM OWN BASIS      FROM ALL BASIS
 T             -234.67957624       -234.68495079
 X              -22.62299943        -22.62398365
 N              102.31523852        102.31523852
 E             -154.98733715       -154.99369592

 ----------------------------------------------------------------------
 SUPER MOLECULE ENERGY  USING ANTISYMMETRIC NONORTHONORMAL WAVEFUNCTION
 (EXCHANGE ENERGY: ONLY X CHANGES)
 ----------------------------------------------------------------------

              FROM OWN BASIS      FROM ALL BASIS
 T             -234.67957624       -234.68495079
 X              -22.95101221        -22.95136628
 N              102.31523852        102.31523852
 E             -155.31534992       -155.32107855

 -----------------------------------------------------------------------
 SUPER MOLECULE ENERGY  USING ANTISYMMETRIC AND ORTHONORMAL WAVEFUNCTION
 (REPULSION ENERGY: T X CHANGE)
 -----------------------------------------------------------------------

              FROM OWN BASIS      FROM ALL BASIS
 T+X           -256.93820079       -256.94325752
 N              102.31523852        102.31523852
 E             -154.62296226       -154.62801900

 ---------------------------------------------
 SUPER MOLECULE ENERGY  USING SCF WAVEFUNCTION
 (POLARIZATION ENERGY: T X CHANGE)
 ---------------------------------------------
 T+X           -257.22963554
 N              102.31523852
 EC              -0.98699472
 E             -155.90139174


                   *******************************
                   SUMMARY OF INTERACTION ENERGIES
                     XEDA IN XIAMEN UNIVERSITY    
                    - ZHEN TANG AND PEIFENG SU -  
                   *******************************


 -------------
 OWN BASIS SET                                       HARTREE          KCAL/MOL
 -------------
 ELECTROSTATIC ENERGY                  ES=         -0.232389           -145.83
 EXCHANGE ENERGY                       EX=         -0.328013           -205.83
 REPULSION ENERGY                     REP=          0.692388            434.48
 POLARIZATION ENERGY                  POL=         -0.291435           -182.88
 ELECTRON CORRELATION                CORR=         -0.038202            -23.97
 TOTAL INTERACTION ENERGY               E=         -0.197651           -124.03
  

 -------------
 ALL BASIS SET                                       HARTREE          KCAL/MOL
 -------------
 ELECTROSTATIC ENERGY                  ES=         -0.237619           -149.11
 EXCHANGE ENERGY                       EX=         -0.327383           -205.44
 REPULSION ENERGY                     REP=          0.693060            434.90
 POLARIZATION ENERGY                  POL=         -0.286378           -179.71
 ELECTRON CORRELATION                CORR=         -0.036949            -23.19
 TOTAL INTERACTION ENERGY               E=         -0.195268           -122.53
  

                     ***************************
                     END OF INTERACTION ANALYSIS
                     ***************************

              1301896  WORDS OF DYNAMIC MEMORY USED
 EXECUTION OF GAMESS TERMINATED NORMALLY 14:31:53 25-DEC-2023    
 DDI: 263640 bytes (0.3 MB / 0 MWords) used by master data server.

 ----------------------------------------
 CPU timing information for all processes
 ========================================
 0: 24.464 + 0.684 = 25.149
 1: 24.306 + 0.553 = 24.860
 2: 24.266 + 0.567 = 24.833
 3: 24.235 + 0.564 = 24.800
 4: 24.328 + 0.610 = 24.938
 5: 24.307 + 0.569 = 24.876
 6: 24.273 + 0.606 = 24.879
 7: 24.272 + 0.589 = 24.861
 8: 24.203 + 0.675 = 24.879
 9: 24.302 + 0.526 = 24.828
 10: 24.263 + 0.583 = 24.847
 11: 24.263 + 0.560 = 24.824
 12: 24.311 + 0.582 = 24.894
 13: 24.256 + 0.529 = 24.785
 14: 24.276 + 0.545 = 24.821
 15: 24.296 + 0.506 = 24.802
 ----------------------------------------
 ddikick.x: exited gracefully.
----- accounting info -----
Files used on the master node w015 were:
-rw-r--r-- 1 xacs0647 10000  2703863 Dec 25 14:31 /job_dir/26_1685750/26.dat
-rw-r--r-- 1 xacs0647 10000      243 Dec 25 14:31 /job_dir/26_1685750/26.err
-rw-r--r-- 1 xacs0647 10000      837 Dec 25 14:31 /job_dir/26_1685750/26.F05
-rw-r--r-- 1 xacs0647 10000 48244288 Dec 25 14:31 /job_dir/26_1685750/26.F08
-rw-r--r-- 1 xacs0647 10000 49864432 Dec 25 14:31 /job_dir/26_1685750/26.F08.001
-rw-r--r-- 1 xacs0647 10000 47704240 Dec 25 14:31 /job_dir/26_1685750/26.F08.002
-rw-r--r-- 1 xacs0647 10000 44463952 Dec 25 14:31 /job_dir/26_1685750/26.F08.003
-rw-r--r-- 1 xacs0647 10000 52744688 Dec 25 14:31 /job_dir/26_1685750/26.F08.004
-rw-r--r-- 1 xacs0647 10000 48424304 Dec 25 14:31 /job_dir/26_1685750/26.F08.005
-rw-r--r-- 1 xacs0647 10000 48424304 Dec 25 14:31 /job_dir/26_1685750/26.F08.006
-rw-r--r-- 1 xacs0647 10000 50764512 Dec 25 14:31 /job_dir/26_1685750/26.F08.007
-rw-r--r-- 1 xacs0647 10000 55624944 Dec 25 14:31 /job_dir/26_1685750/26.F08.008
-rw-r--r-- 1 xacs0647 10000 51304560 Dec 25 14:31 /job_dir/26_1685750/26.F08.009
-rw-r--r-- 1 xacs0647 10000 48064272 Dec 25 14:31 /job_dir/26_1685750/26.F08.010
-rw-r--r-- 1 xacs0647 10000 46264112 Dec 25 14:31 /job_dir/26_1685750/26.F08.011
-rw-r--r-- 1 xacs0647 10000 46804160 Dec 25 14:31 /job_dir/26_1685750/26.F08.012
-rw-r--r-- 1 xacs0647 10000 48784336 Dec 25 14:31 /job_dir/26_1685750/26.F08.013
-rw-r--r-- 1 xacs0647 10000 50584496 Dec 25 14:31 /job_dir/26_1685750/26.F08.014
-rw-r--r-- 1 xacs0647 10000 50404480 Dec 25 14:31 /job_dir/26_1685750/26.F08.015
-rw-r--r-- 1 xacs0647 10000  5758720 Dec 25 14:31 /job_dir/26_1685750/26.F10
-rw-r--r-- 1 xacs0647 10000      837 Dec 25 14:31 /job_dir/26_1685750/26.inp
-rw-r--r-- 1 xacs0647 10000  2403617 Dec 25 14:31 /job_dir/26_1685750/26.out
Mon Dec 25 14:31:57 CST 2023
0.107u 0.117s 0:29.23 0.7%	0+0k 0+32io 0pf+0w
