----- GAMESS execution script 'rungms' -----
This job is running on host w016
under operating system Linux at Mon Dec 25 14:31:28 CST 2023
Available scratch disk space (Kbyte units) at beginning of the job is
Filesystem              1K-blocks     Used Available Use% Mounted on
/dev/mapper/system-root 932514944 13049244 919465700   2% /
GAMESS temporary binary files will be written to /job_dir/27_1685751
GAMESS supplementary output files will be written to /job_dir/27_1685751
Copying input file ./27.inp to your run's scratch directory...
 
Assuming a single but multicore node.
 

 Distributed Data Interface kickoff program.
 Initiating 16 compute processes on 1 nodes to run the following command:
 /share/apps/xeda-apps/xeda-td/gamess.00.x 27 

          *******************************************************
          *                                                     *
          *          GAMESS VERSION = 30 SEP 2020 (R2)          *
          *                                                     *
          *              doi.org/10.1063/5.0005188              *
          *                                                     *
          **************** 64 BIT LINUX VERSION *****************

  GAMESS HAS BEEN MADE POSSIBLE WITH IMPORTANT CONTRIBUTIONS FROM
  THE FOLLOWING INDIVIDUALS (IN ALPHABETICAL ORDER):

     IVANA ADAMOVIC, CHRISTINE AIKENS, TOMOKO AKAMA,
     YURI ALEXEEV, YURIKO AOKI, POOJA ARORA, TOSHIO ASADA,
     ANDREY ASADCHEV, KIM K. BALDRIDGE, PRADIPTA BANDYOPADHYAY,
     MARIA BARYSZ, ROB BELL, JONATHAN BENTZ, COLLEEN BERTONI,
     JERRY A. BOATZ, BRETT BODE, KURT BRORSEN, KURT R. BRORSEN,
     LAIMUTIS BYTAUTAS, CALEB CARLIN, LAURA CARRINGTON,
     GALINA CHABAN, BENOIT CHAMPAGNE, WEI CHEN, MAHITO CHIBA,
     DAN CHIPMAN, CHEOL HO CHOI, TANNER CULPITT,
     DIPAYAN DATTA, PAUL DAY, ALBERT DEFUSCO,
     NUWAN DESILVA, J. EMILIANO DEUSTUA,
     TIM DUDLEY, MICHEL DUPUIS, STEVEN T. ELBERT,
     DMITRI FEDOROV, ALEX FINDLATER, GRAHAM FLETCHER,
     MARK FREITAG, CHRISTIAN FRIEDL, DAVID GARMER,
     IGOR S. GERASIMOV, KURT GLAESEMANN, MARK S. GORDON,
     JEFFREY GOUR, FENG LONG GU, EMILIE B. GUIDEZ,
     ANASTASIA GUNINA, SHARON HAMMES-SCHIFFER, MASATAKE HARUTA,
     KIMIHIKO HIRAO, YASUHIRO IKABATA, TZVETELIN IORDANOV,
     STEPHAN IRLE, KAZUYA ISHIMURA, JOE IVANIC, FRANK JENSEN,
     JAN H. JENSEN, VISVALDAS KAIRYS, MUNEAKI KAMIYA,
     MICHIO KATOUDA, NAOAKI KAWAKAMI, DAN KEMP, BERNARD KIRTMAN,
     KAZUO KITAURA, MARIUSZ KLOBUKOWSKI, MASATO KOBAYASHI,
     PRAKASHAN KORAMBATH, JACEK KORCHOWIEC, SHIRO KOSEKI,
     KAROL KOWALSKI, JIMMY KROMANN, STANISLAW KUCHARSKI,
     HENRY KURTZ, SAROM SOK LEANG, HUI LI, SHUHUA LI, WEI LI,
     JESSE LUTZ, ALEKSANDR O. LYKHIN, MARCIN MAKOWSKI,
     JOANI MATO, NIKITA MATSUNAGA, BENEDETTA MENNUCCI,
     GRANT MERRILL, NORIYUKI MINEZAWA, VLADIMIR MIRONOV,
     EISAKU MIYOSHI, JOHN A. MONTGOMERY JR., HIROTOSHI MORI,
     JONATHAN MULLIN, MONIKA MUSIAL, SHIGERU NAGASE,
     TAKESHI NAGATA, HIROMI NAKAI, TAKAHITO NAKAJIMA,
     YUYA NAKAJIMA, HARUYUKI NAKANO, HIROYA NAKATA, SEAN NEDD,
     HEATHER NETZLOFF, KIET A. NGUYEN, YOSHIO NISHIMOTO,
     BOSILJKA NJEGIC, RYAN OLSON, MIKE PAK, ROBERTO PEVERATI,
     BUU PHAM, PIOTR PIECUCH, ANNA POMOGAEVA, DAVID POOLE,
     SPENCER PRUITT, OLIVIER QUINET, LUKE ROSKOP,
     KLAUS RUEDENBERG, ANDREW SAND, TOSAPORN SATTASATHUCHANA,
     NOZOMI SAWADA, MICHAEL W. SCHMIDT, PATRICK E. SCHNEIDER,
     JUNJI SEINO, PRACHI SHARMA, JUN SHEN, JIM SHOEMAKER,
     YINAN SHU, DEJUN SI, JONATHAN SKONE, LYUDMILA SLIPCHENKO,
     TONY SMITH, JIE SONG, MARK SPACKMAN, CASPER STEINMANN,
     WALT STEVENS, PEIFENG SU, SHUJUN SU, CHET SWALINA,
     TETSUYA TAKETSUGU, ZHEN TAO, NANDUN THELLAMUREGE
     SEIKEN TOKURA, JACOPO TOMASI, TSUGUKI TOUMA, TAKAO TSUNEDA,
     HIROAKI UMEDA, JORGE LUIS GALVEZ VALLEJO, YALI WANG,
     SIMON WEBB, AARON WEST, THERESA L. WINDUS, MARTA WLOCH,
     PENG XU, KIYOSHI YAGI, SUSUMU YANAGISAWA, YANG YANG,
     SOOHAENG YOO, TAKESHI YOSHIKAWA, FEDERICO ZAHARIEV,
     TOBY ZENG

  WHO ARE SUPPORTED BY THEIR INSTITUTION/UNIVERSITY/COMPANY/GROUP
  (IN ALPHABETICAL ORDER):

     EP ANALYTICS, FACULTES UNIVERSITAIRES NOTRE-DAME DE LA PAIX,
     INSTITUTE FOR MOLECULAR SCIENCE, IOWA STATE UNIVERSITY,
     JACKSON STATE UNIVERSITY, JOHANNES KEPLER UNIVERSITY LINZ,
     KYUSHU UNIVERSITY, MICHIGAN STATE UNIVERSITY,
     MIE UNIVERSITY, MOSCOW STATE UNIVERSITY,
     N. COPERNICUS UNIVERSITY, NAGOYA UNIVERSITY,
     NANJING UNIVERSITY, NAT. INST. OF ADVANCED INDUSTRIAL
     SCIENCE AND TECHNOLOGY, NATIONAL INST. OF STANDARDS AND
     TECHNOLOGY, NESMEYANOV INSTITUTE OF ORGANOELEMENT COMPOUNDS
     OF RUSSIAN ACADEMY OF SCIENCES, OSAKA PREFECTURE UNIVERSITY,
     PENNSYLVANIA STATE UNIVERSITY, TOKYO INSTITUTE OF TECHNOLOGY,
     UNIVERSITY OF AARHUS, UNIVERSITY OF ALBERTA,
     UNIVERSITY OF CALIFORNIA AT SANTA BARBARA,
     UNIVERSITY OF COPENHAGEN, UNIVERSITY OF IOWA,
     UNIVERSITY OF MEMPHIS, UNIVERSITY OF MINNESOTA,
     UNIVERSITY OF NEBRASKA, UNIVERSITY OF NEW ENGLAND,
     UNIVERSITY OF NOTRE DAME, UNIVERSITY OF PISA,
     UNIVERSITY OF SILESIA, UNIVERSITY OF TOKYO,
     UNIVERSITY OF ZURICH, WASEDA UNIVERSITY, YALE UNIVERSITY

  GAMESS SOFTWARE MANAGEMENT TEAM FOR THIS RELEASE:
     MARK S. GORDON (TEAM LEAD),
     BRETT BODE (SENIOR ADVISOR),
     GIUSEPPE BARCA,
     COLLEEN BERTONI,
     KRISTOPHER KEIPERT (ADVISOR),
     SAROM S. LEANG (DEVELOPMENT LEAD),
     BUU PHAM,
     JORGE LUIS GALVEZ VALLEJO (WEBSITE ADMINISTRATOR),
     PENG XU


 PARALLEL VERSION RUNNING ON       16 PROCESSORS IN        1 NODES.

 EXECUTION OF GAMESS BEGUN 14:31:28 25-DEC-2023    

            ECHO OF THE FIRST FEW INPUT CARDS -
 INPUT CARD> $CONTRL SCFTYP=UHF RUNTYP=EDA dfttyp=B3LYP ispher=1 icharg=0 mult=1 $END       
 INPUT CARD> $SYSTEM  mwords=150 memddi=150 $END                                            
 INPUT CARD> $BASIS gbasis=accd $END                                                        
 INPUT CARD> $LMOEDA MATOM(1)=5 5 MCHARG(1)=0 0 MMULT(1)=2 -2 edatyp=gks $end               
 INPUT CARD> $scf DIIS=.TRUE. ETHRSH=2.0 SWDIIS=0.005 $end                                  
 INPUT CARD> $data                                                                          
 INPUT CARD> EDA calculation with XEDA 1.0                                                  
 INPUT CARD> c1                                                                             
 INPUT CARD>C   6    0.0000014281    0.6131488601   -1.7730179283                           
 INPUT CARD>C   6    0.0000014281    0.6131488601   -0.4146350824                           
 INPUT CARD>H   1   -0.0000228943    1.5682484418    0.1268929817                           
 INPUT CARD>H   1   -0.0000192056   -0.3175728774   -2.3493706113                           
 INPUT CARD>H   1   -0.0000442868    1.5393679427   -2.3513191720                           
 INPUT CARD>C   6    0.0000014281   -0.6133820999    0.4146212475                           
 INPUT CARD>C   6    0.0000039776   -0.6129628337    1.7730147290                           
 INPUT CARD>H   1   -0.0000120768    0.3180185738    2.3489572489                           
 INPUT CARD>H   1   -0.0000021602   -1.5389162941    2.3517314220                           
 INPUT CARD>H   1    0.0000022523   -1.5685836242   -0.1266890460                           
 INPUT CARD> $end                                                                           
  150000000 WORDS OF MEMORY AVAILABLE

     BASIS OPTIONS
     -------------
     GBASIS=ACCD         IGAUSS=       0      POLAR=NONE    
     NDFUNC=       0     NFFUNC=       0     DIFFSP=       F
     NPFUNC=       0      DIFFS=       F     BASNAM=        


     RUN TITLE
     ---------
  EDA calculation with XEDA 1.0                                                  

 THE POINT GROUP OF THE MOLECULE IS C1      
 THE ORDER OF THE PRINCIPAL AXIS IS     0

 ATOM      ATOMIC                      COORDINATES (BOHR)
           CHARGE         X                   Y                   Z
 C           6.0     0.0000026987        1.1586833353       -3.3505180558
 C           6.0     0.0000026987        1.1586833353       -0.7835466906
 H           1.0    -0.0000432640        2.9635598357        0.2397929652
 H           1.0    -0.0000362933       -0.6001257194       -4.4396666990
 H           1.0    -0.0000836899        2.9089836060       -4.4433489448
 C           6.0     0.0000026987       -1.1591240946        0.7835205465
 C           6.0     0.0000075166       -1.1583317964        3.3505120100
 H           1.0    -0.0000228218        0.6009679635        4.4388855573
 H           1.0    -0.0000040822       -2.9081301139        4.4441279843
 H           1.0     0.0000042562       -2.9641932386       -0.2394075826

          INTERNUCLEAR DISTANCES (ANGS.)
          ------------------------------

                1 C          2 C          3 H          4 H          5 H     

   1 C       0.0000000    1.3583828 *  2.1264705 *  1.0947262 *  1.0919314 *
   2 C       1.3583828 *  0.0000000    1.0979380 *  2.1469617 *  2.1467713 *
   3 H       2.1264705 *  1.0979380 *  0.0000000    3.1125879    2.4783804 *
   4 H       1.0947262 *  2.1469617 *  3.1125879    0.0000000    1.8569418 *
   5 H       1.0919314 *  2.1467713 *  2.4783804 *  1.8569418 *  0.0000000  
   6 C       2.5080158 *  1.4805554 *  2.2005225 *  2.7797759 *  3.5049621  
   7 C       3.7520258    2.5078201 *  2.7326543 *  4.1329549    4.6521670  
   8 H       4.1325272    2.7793065 *  2.5496361 *  4.7411245    4.8563662  
   9 H       4.6524125    3.5048778    3.8215676    4.8571638    5.6209002  
  10 H       2.7331951 *  2.2006521 *  3.1470652    2.5505570 *  3.8220861  

                6 C          7 C          8 H          9 H         10 H     

   1 C       2.5080158 *  3.7520258    4.1325272    4.6524125    2.7331951 *
   2 C       1.4805554 *  2.5078201 *  2.7793065 *  3.5048778    2.2006521 *
   3 H       2.2005225 *  2.7326543 *  2.5496361 *  3.8215676    3.1470652  
   4 H       2.7797759 *  4.1329549    4.7411245    4.8571638    2.5505570 *
   5 H       3.5049621    4.6521670    4.8563662    5.6209002    3.8220861  
   6 C       0.0000000    1.3583935 *  2.1468961 *  2.1468604 *  1.0979193 *
   7 C       1.3583935 *  0.0000000    1.0947311 *  1.0919262 *  2.1265196 *
   8 H       2.1468961 *  1.0947311 *  0.0000000    1.8569369 *  3.1125701  
   9 H       2.1468604 *  1.0919262 *  1.8569369 *  0.0000000    2.4785980 *
  10 H       1.0979193 *  2.1265196 *  3.1125701    2.4785980 *  0.0000000  

  * ... LESS THAN  3.000


     ATOMIC BASIS SET
     ----------------
 THE CONTRACTED PRIMITIVE FUNCTIONS HAVE BEEN UNNORMALIZED
 THE CONTRACTED BASIS FUNCTIONS ARE NOW NORMALIZED TO UNITY

  SHELL TYPE  PRIMITIVE        EXPONENT          CONTRACTION COEFFICIENT(S)

 C         

      1   S       1          6665.0000000    0.000691583963
      1   S       2          1000.0000000    0.005325796153
      1   S       3           228.0000000    0.027060721042
      1   S       4            64.7100000    0.101656846141
      1   S       5            21.0600000    0.274574823617
      1   S       6             7.4950000    0.448294318924
      1   S       7             2.7970000    0.284902610715
      1   S       8             0.5215000    0.015194859206

      2   S       9          6665.0000000   -0.000293269653
      2   S      10          1000.0000000   -0.002318035474
      2   S      11           228.0000000   -0.011499786039
      2   S      12            64.7100000   -0.046826727010
      2   S      13            21.0600000   -0.128466168750
      2   S      14             7.4950000   -0.301266272463
      2   S      15             2.7970000   -0.255630702330
      2   S      16             0.5215000    1.093793361012

      3   S      17             0.1596000    1.000000000000

      4   P      18             9.4390000    0.056979251590
      4   P      19             2.0020000    0.313207211501
      4   P      20             0.5456000    0.760376741738

      5   P      21             0.1517000    1.000000000000

      6   D      22             0.5500000    1.000000000000

      7   S      23             0.0469000    1.000000000000

      8   P      24             0.0404100    1.000000000000

      9   D      25             0.1510000    1.000000000000

 C         

     10   S      26          6665.0000000    0.000691583963
     10   S      27          1000.0000000    0.005325796153
     10   S      28           228.0000000    0.027060721042
     10   S      29            64.7100000    0.101656846141
     10   S      30            21.0600000    0.274574823617
     10   S      31             7.4950000    0.448294318924
     10   S      32             2.7970000    0.284902610715
     10   S      33             0.5215000    0.015194859206

     11   S      34          6665.0000000   -0.000293269653
     11   S      35          1000.0000000   -0.002318035474
     11   S      36           228.0000000   -0.011499786039
     11   S      37            64.7100000   -0.046826727010
     11   S      38            21.0600000   -0.128466168750
     11   S      39             7.4950000   -0.301266272463
     11   S      40             2.7970000   -0.255630702330
     11   S      41             0.5215000    1.093793361012

     12   S      42             0.1596000    1.000000000000

     13   P      43             9.4390000    0.056979251590
     13   P      44             2.0020000    0.313207211501
     13   P      45             0.5456000    0.760376741738

     14   P      46             0.1517000    1.000000000000

     15   D      47             0.5500000    1.000000000000

     16   S      48             0.0469000    1.000000000000

     17   P      49             0.0404100    1.000000000000

     18   D      50             0.1510000    1.000000000000

 H         

     19   S      51            13.0100000    0.033498726390
     19   S      52             1.9620000    0.234800801174
     19   S      53             0.4446000    0.813682957883

     20   S      54             0.1220000    1.000000000000

     21   P      55             0.7270000    1.000000000000

     22   S      56             0.0297400    1.000000000000

     23   P      57             0.1410000    1.000000000000

 H         

     24   S      58            13.0100000    0.033498726390
     24   S      59             1.9620000    0.234800801174
     24   S      60             0.4446000    0.813682957883

     25   S      61             0.1220000    1.000000000000

     26   P      62             0.7270000    1.000000000000

     27   S      63             0.0297400    1.000000000000

     28   P      64             0.1410000    1.000000000000

 H         

     29   S      65            13.0100000    0.033498726390
     29   S      66             1.9620000    0.234800801174
     29   S      67             0.4446000    0.813682957883

     30   S      68             0.1220000    1.000000000000

     31   P      69             0.7270000    1.000000000000

     32   S      70             0.0297400    1.000000000000

     33   P      71             0.1410000    1.000000000000

 C         

     34   S      72          6665.0000000    0.000691583963
     34   S      73          1000.0000000    0.005325796153
     34   S      74           228.0000000    0.027060721042
     34   S      75            64.7100000    0.101656846141
     34   S      76            21.0600000    0.274574823617
     34   S      77             7.4950000    0.448294318924
     34   S      78             2.7970000    0.284902610715
     34   S      79             0.5215000    0.015194859206

     35   S      80          6665.0000000   -0.000293269653
     35   S      81          1000.0000000   -0.002318035474
     35   S      82           228.0000000   -0.011499786039
     35   S      83            64.7100000   -0.046826727010
     35   S      84            21.0600000   -0.128466168750
     35   S      85             7.4950000   -0.301266272463
     35   S      86             2.7970000   -0.255630702330
     35   S      87             0.5215000    1.093793361012

     36   S      88             0.1596000    1.000000000000

     37   P      89             9.4390000    0.056979251590
     37   P      90             2.0020000    0.313207211501
     37   P      91             0.5456000    0.760376741738

     38   P      92             0.1517000    1.000000000000

     39   D      93             0.5500000    1.000000000000

     40   S      94             0.0469000    1.000000000000

     41   P      95             0.0404100    1.000000000000

     42   D      96             0.1510000    1.000000000000

 C         

     43   S      97          6665.0000000    0.000691583963
     43   S      98          1000.0000000    0.005325796153
     43   S      99           228.0000000    0.027060721042
     43   S     100            64.7100000    0.101656846141
     43   S     101            21.0600000    0.274574823617
     43   S     102             7.4950000    0.448294318924
     43   S     103             2.7970000    0.284902610715
     43   S     104             0.5215000    0.015194859206

     44   S     105          6665.0000000   -0.000293269653
     44   S     106          1000.0000000   -0.002318035474
     44   S     107           228.0000000   -0.011499786039
     44   S     108            64.7100000   -0.046826727010
     44   S     109            21.0600000   -0.128466168750
     44   S     110             7.4950000   -0.301266272463
     44   S     111             2.7970000   -0.255630702330
     44   S     112             0.5215000    1.093793361012

     45   S     113             0.1596000    1.000000000000

     46   P     114             9.4390000    0.056979251590
     46   P     115             2.0020000    0.313207211501
     46   P     116             0.5456000    0.760376741738

     47   P     117             0.1517000    1.000000000000

     48   D     118             0.5500000    1.000000000000

     49   S     119             0.0469000    1.000000000000

     50   P     120             0.0404100    1.000000000000

     51   D     121             0.1510000    1.000000000000

 H         

     52   S     122            13.0100000    0.033498726390
     52   S     123             1.9620000    0.234800801174
     52   S     124             0.4446000    0.813682957883

     53   S     125             0.1220000    1.000000000000

     54   P     126             0.7270000    1.000000000000

     55   S     127             0.0297400    1.000000000000

     56   P     128             0.1410000    1.000000000000

 H         

     57   S     129            13.0100000    0.033498726390
     57   S     130             1.9620000    0.234800801174
     57   S     131             0.4446000    0.813682957883

     58   S     132             0.1220000    1.000000000000

     59   P     133             0.7270000    1.000000000000

     60   S     134             0.0297400    1.000000000000

     61   P     135             0.1410000    1.000000000000

 H         

     62   S     136            13.0100000    0.033498726390
     62   S     137             1.9620000    0.234800801174
     62   S     138             0.4446000    0.813682957883

     63   S     139             0.1220000    1.000000000000

     64   P     140             0.7270000    1.000000000000

     65   S     141             0.0297400    1.000000000000

     66   P     142             0.1410000    1.000000000000

 TOTAL NUMBER OF BASIS SET SHELLS             =   66
 NUMBER OF CARTESIAN GAUSSIAN BASIS FUNCTIONS =  154
 NOTE: THIS RUN WILL RESTRICT THE MO VARIATION SPACE TO SPHERICAL HARMONICS.
 THE NUMBER OF ORBITALS KEPT IN THE VARIATIONAL SPACE WILL BE PRINTED LATER.
 NUMBER OF ELECTRONS                          =   30
 CHARGE OF MOLECULE                           =    0
 SPIN MULTIPLICITY                            =    1
 NUMBER OF OCCUPIED ORBITALS (ALPHA)          =   15
 NUMBER OF OCCUPIED ORBITALS (BETA )          =   15
 TOTAL NUMBER OF ATOMS                        =   10
 THE NUCLEAR REPULSION ENERGY IS      102.3147194332

 SELECTED MURRAY-HANDY-LAMING RADIAL GRID

 LEGACY BECKE'S FUZZY CELL METHOD

 SELECTED ORIGINAL BECKE'S PARTITION FUNCTION

     LEBEDEV GRID-BASED DFT OPTIONS
     ------------------------------
     DFTTYP=B3LYP   
     NRAD  =      96     NLEB  =     302
     NRAD0 =      24     NLEB0 =     110
     SWOFF =    5.00E-03 (PURE SCF -> DFT)
     SWITCH=    3.00E-04 (COARSE -> TIGHT GRID)
     THRESH=    0.00E+00 GTHRE=    1.00E+00

 GRIMME'S EMPIRICAL DISPERSION CORRECTION= F

     $CONTRL OPTIONS
     ---------------
 SCFTYP=UHF          RUNTYP=LMOEDA       EXETYP=RUN     
 MPLEVL=       0     CITYP =NONE         CCTYP =NONE         VBTYP =NONE    
 DFTTYP=B3LYP        TDDFT =NONE    
 MULT  =       1     ICHARG=       0     NZVAR =       0     COORD =UNIQUE  
 PP    =NONE         RELWFN=NONE         LOCAL =NONE         NUMGRD=       F
 ISPHER=       1     NOSYM =       0     MAXIT =      30     UNITS =ANGS    
 PLTORB=       F     MOLPLT=       F     AIMPAC=       F     FRIEND=        
 NPRINT=       7     IREST =       0     GEOM  =INPUT   
 NORMF =       0     NORMP =       0     ITOL  =      20     ICUT  =       9
 INTTYP=BEST         GRDTYP=BEST         QMTTOL= 1.0E-06

     $SYSTEM OPTIONS
     ---------------
  REPLICATED MEMORY=   150000000 WORDS (ON EVERY NODE).
 DISTRIBUTED MEMDDI=         150 MILLION WORDS IN AGGREGATE,
 MEMDDI DISTRIBUTED OVER  16 PROCESSORS IS     9375000 WORDS/PROCESSOR.
 TOTAL MEMORY REQUESTED ON EACH PROCESSOR=   159375000 WORDS.
 TIMLIM=      525600.00 MINUTES, OR     365.0 DAYS.
 PARALL= T  BALTYP=  DLB     KDIAG=    0  COREFL= F
 MXSEQ2=     300 MXSEQ3=     150  mem10=         0  mem22=         0

 Using Gaussians for PCM contribution to MEP, params: 0.10000E+01 0.10000E-07

          ----------------
          PROPERTIES INPUT
          ----------------

     MOMENTS            FIELD           POTENTIAL          DENSITY
 IEMOM =       1   IEFLD =       0   IEPOT =       0   IEDEN =       0
 WHERE =COMASS     WHERE =NUCLEI     WHERE =NUCLEI     WHERE =NUCLEI  
 OUTPUT=BOTH       OUTPUT=BOTH       OUTPUT=BOTH       OUTPUT=BOTH    
 IEMINT=       0   IEFINT=       0                     IEDINT=       0
                                                       MORB  =       0
          EXTRAPOLATION IN EFFECT
          DIIS IN EFFECT
          DIIS or SOSCF will be reset if energy rises
 ORBITAL PRINTING OPTION: NPREO=     1   154     2     1

     -------------------------------
     INTEGRAL TRANSFORMATION OPTIONS
     -------------------------------
     NWORD  =            0
     CUTOFF = 1.0E-09     MPTRAN =       0
     DIRTRF =       F     AOINTS =DUP     

          -----------------------------
          LOCALIZATION INPUT PARAMETERS
          -----------------------------
           LOCAL=RUEDNBRG      NOUTA=       0
          PRTLOC=       F      NOUTB=       0
          MAXLOC=     250     CVGLOC=1.00E-06
           FCORE=       F     SYMLOC=       F
          MOIDON=       F     EDCOMP=       F
          DIPDCM=       F      NPROT=       0
          QADDCM=       F     DEPRNT=       F
          POLNUM=       F     ORIENT=       F
          POLDYN=       F      VMTOL=1.50E-01
          NPRDTL=       2     IBOYAL=       1

          ----------------------
          INTEGRAL INPUT OPTIONS
          ----------------------
 NOPK  =       1 NORDER=       0 SCHWRZ=       T

     ------------------------------------------
     THE POINT GROUP IS C1 , NAXIS= 0, ORDER= 1
     ------------------------------------------

 -- VARIATIONAL SPACE WILL BE RESTRICTED TO PURE SPHERICAL HARMONICS ONLY --
 AFTER EXCLUDING CONTAMINANT COMBINATIONS FROM THE CARTESIAN GAUSSIAN BASIS
 SET, THE NUMBER OF SPHERICAL HARMONICS KEPT IN THE VARIATION SPACE IS  146

     DIMENSIONS OF THE SYMMETRY SUBSPACES ARE
 A   =  146

 ..... DONE SETTING UP THE RUN .....
 CPU     0: STEP CPU TIME=     0.02 TOTAL CPU TIME=          0.0 (      0.0 MIN)
 TOTAL WALL CLOCK TIME=          0.0 SECONDS, CPU UTILIZATION IS    76.20%

          --------------
          GKSEDA OPTIONS
          --------------
          NMOL  =       2          EDATYP=GKS     
          SUPBAS=       T          RDVECM=       F          ITRTN =       T

 *******************
 GKSEDA IS BEGINNING
 *******************

 NMOL =  2

 MONOMER     ATOM   CHARGE ELECTRON MULTIPLE
 -------------------------------------------
       1        5        0       15        2
       2        5        0       15       -2
 -------------------------------------------

 SAVING MOL INFO REQUIRES    598670 WORDS OF MEMORY.

          ********************
          1 ELECTRON INTEGRALS
          ********************
 ...... END OF ONE-ELECTRON INTEGRALS ......
 CPU     0: STEP CPU TIME=     0.01 TOTAL CPU TIME=          0.0 (      0.0 MIN)
 TOTAL WALL CLOCK TIME=          0.0 SECONDS, CPU UTILIZATION IS    79.16%

          -------------
          GUESS OPTIONS
          -------------
          GUESS =HUCKEL            NORB  =       0          NORDER=       0
          MIX   =       F          PRTMO =       F          PUNMO =       F
          TOLZ  = 1.0E-08          TOLE  = 1.0E-05
          SYMDEN=       F          PURIFY=       F

 INITIAL GUESS ORBITALS GENERATED BY HUCKEL   ROUTINE.
 HUCKEL GUESS REQUIRES    180842 WORDS.

 STATISTICS FOR GENERATION OF SYMMETRY ORBITAL -Q- MATRIX
 NUMBER OF CARTESIAN ATOMIC ORBITALS=        154
 NUMBER OF SPHERICAL CONTAMINANTS DROPPED=     8
 NUMBER OF LINEARLY DEPENDENT MOS DROPPED=     0
 TOTAL NUMBER OF MOS IN VARIATION SPACE=     146

 SYMMETRIES FOR INITIAL GUESS ORBITALS FOLLOW.  ALPHA SET(S).
    15 ORBITALS ARE OCCUPIED (    4 CORE ORBITALS).
     5=A        6=A        7=A        8=A        9=A       10=A       11=A   
    12=A       13=A       14=A       15=A       16=A       17=A       18=A   
    19=A       20=A       21=A       22=A       23=A       24=A       25=A   

 SYMMETRIES FOR INITIAL GUESS ORBITALS FOLLOW.   BETA SET(S).
    15 ORBITALS ARE OCCUPIED (    4 CORE ORBITALS).
     5=A        6=A        7=A        8=A        9=A       10=A       11=A   
    12=A       13=A       14=A       15=A       16=A       17=A       18=A   
    19=A       20=A       21=A       22=A       23=A       24=A       25=A   
 ...... END OF INITIAL ORBITAL SELECTION ......
 CPU     0: STEP CPU TIME=     0.01 TOTAL CPU TIME=          0.0 (      0.0 MIN)
 TOTAL WALL CLOCK TIME=          0.0 SECONDS, CPU UTILIZATION IS    84.51%

          -------------------------
          MONOMER  1 WITH OWN BASIS
          -------------------------

     ------------------------------------------
     THE POINT GROUP IS C1 , NAXIS= 0, ORDER= 1
     ------------------------------------------

 -- VARIATIONAL SPACE WILL BE RESTRICTED TO PURE SPHERICAL HARMONICS ONLY --
 AFTER EXCLUDING CONTAMINANT COMBINATIONS FROM THE CARTESIAN GAUSSIAN BASIS
 SET, THE NUMBER OF SPHERICAL HARMONICS KEPT IN THE VARIATION SPACE IS   73

     DIMENSIONS OF THE SYMMETRY SUBSPACES ARE
 A   =   73

          ********************
          1 ELECTRON INTEGRALS
          ********************
 ...... END OF ONE-ELECTRON INTEGRALS ......
 CPU     0: STEP CPU TIME=     0.01 TOTAL CPU TIME=          0.0 (      0.0 MIN)
 TOTAL WALL CLOCK TIME=          0.1 SECONDS, CPU UTILIZATION IS    81.30%

          -------------
          GUESS OPTIONS
          -------------
          GUESS =HUCKEL            NORB  =       0          NORDER=       0
          MIX   =       F          PRTMO =       F          PUNMO =       F
          TOLZ  = 1.0E-08          TOLE  = 1.0E-05
          SYMDEN=       F          PURIFY=       F

 INITIAL GUESS ORBITALS GENERATED BY HUCKEL   ROUTINE.
 HUCKEL GUESS REQUIRES     47410 WORDS.

 STATISTICS FOR GENERATION OF SYMMETRY ORBITAL -Q- MATRIX
 NUMBER OF CARTESIAN ATOMIC ORBITALS=         77
 NUMBER OF SPHERICAL CONTAMINANTS DROPPED=     4
 NUMBER OF LINEARLY DEPENDENT MOS DROPPED=     0
 TOTAL NUMBER OF MOS IN VARIATION SPACE=      73

 SYMMETRIES FOR INITIAL GUESS ORBITALS FOLLOW.  ALPHA SET(S).
     8 ORBITALS ARE OCCUPIED (    2 CORE ORBITALS).
     3=A        4=A        5=A        6=A        7=A        8=A        9=A   
    10=A       11=A       12=A       13=A       14=A       15=A       16=A   
    17=A       18=A   

 SYMMETRIES FOR INITIAL GUESS ORBITALS FOLLOW.   BETA SET(S).
     7 ORBITALS ARE OCCUPIED (    2 CORE ORBITALS).
     3=A        4=A        5=A        6=A        7=A        8=A        9=A   
    10=A       11=A       12=A       13=A       14=A       15=A       16=A   
    17=A   
 ...... END OF INITIAL ORBITAL SELECTION ......
 CPU     0: STEP CPU TIME=     0.00 TOTAL CPU TIME=          0.1 (      0.0 MIN)
 TOTAL WALL CLOCK TIME=          0.1 SECONDS, CPU UTILIZATION IS    82.22%

                    ----------------------
                    AO INTEGRAL TECHNOLOGY
                    ----------------------
     S,P,L SHELL ROTATED AXIS INTEGRALS, REPROGRAMMED BY
        KAZUYA ISHIMURA (IMS) AND JOSE SIERRA (SYNSTAR).
     S,P,D,L SHELL ROTATED AXIS INTEGRALS PROGRAMMED BY
        KAZUYA ISHIMURA (INSTITUTE FOR MOLECULAR SCIENCE).
     S,P,D,F,G SHELL TO TOTAL QUARTET ANGULAR MOMENTUM SUM 5,
        ERIC PROGRAM BY GRAHAM FLETCHER (ELORET AND NASA ADVANCED
        SUPERCOMPUTING DIVISION, AMES RESEARCH CENTER).
     S,P,D,F,G,L SHELL GENERAL RYS QUADRATURE PROGRAMMED BY
        MICHEL DUPUIS (PACIFIC NORTHWEST NATIONAL LABORATORY).

          --------------------
          2 ELECTRON INTEGRALS
          --------------------

 THE -PK- OPTION IS OFF, THE INTEGRALS ARE NOT IN SUPERMATRIX FORM.
 STORING   15000 INTEGRALS/RECORD ON DISK, USING 12 BYTES/INTEGRAL.
 TWO ELECTRON INTEGRAL EVALUATION REQUIRES   90957 WORDS OF MEMORY.
 SCHWARZ INEQUALITY OVERHEAD:      3003 INTEGRALS, T=        0.00
 II,JST,KST,LST =  1  1  1  1 NREC =         1 INTLOC =    1
 II,JST,KST,LST =  2  1  1  1 NREC =         1 INTLOC =    1
 II,JST,KST,LST =  3  1  1  1 NREC =         1 INTLOC =    1
 II,JST,KST,LST =  4  1  1  1 NREC =         1 INTLOC =    1
 II,JST,KST,LST =  5  1  1  1 NREC =         1 INTLOC =    1
 II,JST,KST,LST =  6  1  1  1 NREC =         1 INTLOC =    1
 II,JST,KST,LST =  7  1  1  1 NREC =         1 INTLOC =    4
 II,JST,KST,LST =  8  1  1  1 NREC =         1 INTLOC =  250
 II,JST,KST,LST =  9  1  1  1 NREC =         1 INTLOC =  250
 II,JST,KST,LST = 10  1  1  1 NREC =         1 INTLOC =  250
 II,JST,KST,LST = 11  1  1  1 NREC =         1 INTLOC =  288
 II,JST,KST,LST = 12  1  1  1 NREC =         1 INTLOC =  706
 II,JST,KST,LST = 13  1  1  1 NREC =         1 INTLOC = 1028
 II,JST,KST,LST = 14  1  1  1 NREC =         1 INTLOC = 4570
 II,JST,KST,LST = 15  1  1  1 NREC =         1 INTLOC = 4570
 II,JST,KST,LST = 16  1  1  1 NREC =         1 INTLOC =10787
 II,JST,KST,LST = 17  1  1  1 NREC =         1 INTLOC =10787
 II,JST,KST,LST = 18  1  1  1 NREC =         1 INTLOC =10787
 II,JST,KST,LST = 19  1  1  1 NREC =         1 INTLOC =10787
 II,JST,KST,LST = 20  1  1  1 NREC =         2 INTLOC =10957
 II,JST,KST,LST = 21  1  1  1 NREC =         2 INTLOC =10957
 II,JST,KST,LST = 22  1  1  1 NREC =         3 INTLOC =  281
 II,JST,KST,LST = 23  1  1  1 NREC =         3 INTLOC =13842
 II,JST,KST,LST = 24  1  1  1 NREC =         4 INTLOC =14659
 II,JST,KST,LST = 25  1  1  1 NREC =         6 INTLOC =10698
 II,JST,KST,LST = 26  1  1  1 NREC =         6 INTLOC =14521
 II,JST,KST,LST = 27  1  1  1 NREC =         8 INTLOC = 2134
 II,JST,KST,LST = 28  1  1  1 NREC =         9 INTLOC =13913
 II,JST,KST,LST = 29  1  1  1 NREC =        12 INTLOC =14908
 II,JST,KST,LST = 30  1  1  1 NREC =        13 INTLOC = 4617
 II,JST,KST,LST = 31  1  1  1 NREC =        13 INTLOC =11671
 II,JST,KST,LST = 32  1  1  1 NREC =        16 INTLOC =14771
 II,JST,KST,LST = 33  1  1  1 NREC =        17 INTLOC = 5179
 SCHWARZ INEQUALITY TEST SKIPPED           0 INTEGRAL BLOCKS.
 TOTAL NUMBER OF NONZERO TWO-ELECTRON INTEGRALS =             3777130
        259 INTEGRAL RECORDS WERE STORED ON DISK FILE  8.
  ...... END OF TWO-ELECTRON INTEGRALS .....
 CPU     0: STEP CPU TIME=     0.03 TOTAL CPU TIME=          0.1 (      0.0 MIN)
 TOTAL WALL CLOCK TIME=          0.1 SECONDS, CPU UTILIZATION IS    86.85%

          ---------------------------
              U-B3LYP SCF CALCULATION
          ---------------------------

     NUCLEAR ENERGY =        27.8437025663
     MAXIT = 30     NPUNCH=  2     MULT=  2
     EXTRAP=T  DAMP=F  SHIFT=F  RSTRCT=F  DIIS=T  SOSCF=T
         DENSITY MATRIX CONVERGENCE THRESHOLD=  1.00E-05
     COARSE -> FINE DFT GRID SWITCH THRESHOLD=  3.00E-04 (SWITCH IN $DFT)
                   HF -> DFT SWITCH THRESHOLD=  5.00E-03 (SWOFF IN $DFT)
     SOSCF WILL OPTIMIZE     520 ALPHA AND     462 BETA ROTATION ANGLES.
     SOGTOL= 2.500E-01
     MEMORY REQUIRED FOR UHF/ROHF ITERS=    298732 WORDS.

     EXCHANGE FUNCTIONAL   =B88&HFX   
     CORRELATION FUNCTIONAL=LYP88&VWN5
     DFT THRESHOLD         =.690E-08
     GRID CHANGE THRESHOLD =.300E-03
 FOR AN EULER-MACLAURIN QUADRATURE USING  96 RADIAL POINTS:
 SMALLEST GAUSSIAN PRIMITIVE EXPONENT=        0.0297400000 OF TYPE -S-
 ON ATOM NUMBER   3 HAS RADIAL NORMALIZATION=  1.000000
  LARGEST GAUSSIAN PRIMITIVE EXPONENT=     6665.0000000000 OF TYPE -S-
 ON ATOM NUMBER   1 HAS RADIAL NORMALIZATION=  1.000000
 DFT IS SWITCHED OFF, PERFORMING PURE SCF UNTIL SWOFF THRESHOLD IS REACHED.

 ITER EX      TOTAL ENERGY        E CHANGE  DENSITY CHANGE    DIIS ERROR
          * * *   INITIATING DIIS PROCEDURE   * * *
   1  0      -77.1747831920   -77.1747831920   0.498528480   0.357419894
   2  1      -77.3686011453    -0.1938179533   0.153843403   0.054096937
   3  2      -77.3846363575    -0.0160352122   0.031233373   0.026111601
   4  3      -77.3890561180    -0.0044197605   0.022257506   0.011310123
   5  4      -77.3904557707    -0.0013996527   0.012956062   0.008618992
   6  5      -77.3911111993    -0.0006554286   0.024205564   0.008626806
   7  6      -77.3921779082    -0.0010667089   0.062970842   0.008398585
   8  7      -77.3945465699    -0.0023686617   0.118361288   0.006639954
   9  8      -77.3961718720    -0.0016253022   0.075566882   0.002396202
  10  9      -77.3956876214     0.0004842506   0.045431532   0.004419311
  11 10      -77.3962712434    -0.0005836220   0.008916166   0.000851176
  12 11      -77.3962910535    -0.0000198101   0.000337668   0.000078072
 CONVERGED TO SWOFF, SO DFT CALCULATION IS NOW SWITCHED ON.
          * * *   INITIATING DIIS PROCEDURE   * * *
  13 12      -77.8300049334    -0.4337138799   0.394161708   0.062315159
  14 13      -77.8466240449    -0.0166191116   0.062859911   0.016779027
  15 14      -77.8493135525    -0.0026895075   0.024685212   0.012030792
  16 15      -77.8507761131    -0.0014625606   0.050582994   0.007402397
  17 16      -77.8517585863    -0.0009824732   0.009452570   0.003626463
  18 17      -77.8518487283    -0.0000901420   0.006197692   0.001388145
  19 18      -77.8518689234    -0.0000201951   0.002073824   0.000276955
         SWDIIS THRESHOLD HAS BEEN REACHED: SWITCHING DIIS OFF.
          ---------------START SECOND ORDER SCF---------------
  20 19      -77.8518701085    -0.0000011851   0.000137183   0.000022821
  21 20      -77.8518701205    -0.0000000120   0.000155218   0.000023235
  22 21      -77.8518701211    -0.0000000006   0.000065003   0.000021245
  23 22      -77.8518701252    -0.0000000041   0.000009234   0.000002444
  24 23      -77.8518701253    -0.0000000001   0.000014090   0.000001979

          ----------------
          ENERGY CONVERGED
          ----------------
     TIME TO FORM FOCK OPERATORS=       1.2 SECONDS (       0.1 SEC/ITER)
     TIME TO SOLVE SCF EQUATIONS=       0.1 SECONDS (       0.0 SEC/ITER)

 FINAL U-B3LYP ENERGY IS      -77.8518701253 AFTER  24 ITERATIONS
 DFT EXCHANGE + CORRELATION ENERGY =        -9.5235271352
 TOTAL ELECTRON NUMBER             =        14.9999927355

          --------------------
          SPIN SZ   =    0.500
          S-SQUARED =    0.764
          --------------------

  ----- ALPHA SET ----- 

          ------------
          EIGENVECTORS
          ------------

                      1          2          3          4          5
                  -10.2295   -10.2022    -0.7664    -0.5783    -0.4642
                     A          A          A          A          A   
    1  C  1  S    0.011876   1.009644  -0.019574   0.011335  -0.002193
    2  C  1  S   -0.001512   0.022135   0.316396  -0.227098   0.000288
    3  C  1  S    0.039884  -0.073211   0.097162  -0.324010  -0.036337
    4  C  1  X   -0.000000  -0.000000  -0.000002   0.000006  -0.000010
    5  C  1  Y   -0.000025  -0.000001   0.007837   0.030454   0.340230
    6  C  1  Z   -0.000999  -0.000357   0.110101   0.206924  -0.210703
    7  C  1  X    0.000000   0.000000   0.000000  -0.000006   0.000002
    8  C  1  Y   -0.001403  -0.000270   0.023344   0.027256  -0.015982
    9  C  1  Z    0.038454  -0.008893  -0.028184  -0.243686   0.038827
   10  C  1 XX    0.000217  -0.001623  -0.006320   0.001538  -0.001707
   11  C  1 YY    0.000861   0.000835  -0.007539  -0.011300   0.008472
   12  C  1 ZZ   -0.001078   0.000788   0.013859   0.009763  -0.006766
   13  C  1 XY   -0.000000  -0.000000  -0.000000   0.000000  -0.000001
   14  C  1 XZ    0.000000   0.000000  -0.000000  -0.000000   0.000000
   15  C  1 YZ    0.000475   0.000042   0.000196   0.002367  -0.006105
   16  C  1  S    0.015200  -0.033862   0.016567   0.137368  -0.060639
   17  C  1  X    0.000000   0.000000  -0.000000  -0.000001   0.000001
   18  C  1  Y    0.000766   0.000812  -0.003903   0.009519  -0.058514
   19  C  1  Z    0.006196  -0.003672  -0.001805   0.011502  -0.008854
   20  C  1 XX   -0.002124   0.004867   0.006259  -0.007031  -0.006241
   21  C  1 YY   -0.004463   0.001510  -0.008360   0.106027  -0.044430
   22  C  1 ZZ    0.006587  -0.006377   0.002100  -0.098995   0.050670
   23  C  1 XY    0.000000   0.000000  -0.000000  -0.000003   0.000003
   24  C  1 XZ   -0.000000  -0.000000  -0.000000  -0.000003  -0.000000
   25  C  1 YZ   -0.003173  -0.001081   0.024744   0.018408   0.104557
   26  C  2  S    1.009978  -0.013440  -0.017012  -0.006442  -0.000374
   27  C  2  S    0.022703  -0.001355   0.307143   0.269362  -0.069619
   28  C  2  S   -0.089505   0.024399   0.252507   0.494501  -0.239368
   29  C  2  X   -0.000000  -0.000000  -0.000001  -0.000001  -0.000007
   30  C  2  Y    0.000898   0.000108   0.024332   0.097021   0.255285
   31  C  2  Z   -0.000211   0.000904  -0.127742   0.119205   0.165591
   32  C  2  X    0.000000   0.000000   0.000001   0.000006  -0.000003
   33  C  2  Y   -0.003175  -0.001132  -0.056922  -0.092185   0.008456
   34  C  2  Z    0.030488  -0.016856  -0.090360  -0.221965   0.063042
   35  C  2 XX   -0.000855   0.000670  -0.011420  -0.001469  -0.000477
   36  C  2 YY    0.000518   0.000643  -0.003888   0.009818   0.005746
   37  C  2 ZZ    0.000337  -0.001313   0.015308  -0.008349  -0.005269
   38  C  2 XY   -0.000000  -0.000000  -0.000000  -0.000000  -0.000000
   39  C  2 XZ   -0.000000   0.000000   0.000000  -0.000000   0.000000
   40  C  2 YZ    0.000891   0.000040  -0.006117  -0.001575  -0.009582
   41  C  2  S   -0.028969   0.019708  -0.018714  -0.117354   0.022031
   42  C  2  X    0.000000   0.000000   0.000000   0.000001  -0.000000
   43  C  2  Y   -0.001423  -0.001327  -0.000073  -0.027074   0.017995
   44  C  2  Z    0.004208  -0.005759   0.006725   0.004495  -0.013302
   45  C  2 XX    0.005987  -0.001048  -0.006832   0.006141   0.001239
   46  C  2 YY    0.004298  -0.001756  -0.017620  -0.059792  -0.008447
   47  C  2 ZZ   -0.010286   0.002804   0.024452   0.053651   0.007208
   48  C  2 XY    0.000000   0.000000   0.000001   0.000002  -0.000001
   49  C  2 XZ    0.000000  -0.000000   0.000000  -0.000001   0.000000
   50  C  2 YZ   -0.004308  -0.001174   0.008544  -0.022781   0.013027
   51  H  3  S   -0.000659  -0.000100   0.123976   0.258567   0.195712
   52  H  3  S    0.021450   0.007210   0.063896   0.272566   0.109832
   53  H  3  X   -0.000000   0.000000   0.000000   0.000000   0.000000
   54  H  3  Y    0.001713  -0.000007  -0.012690  -0.016797  -0.005996
   55  H  3  Z    0.000746   0.000191  -0.011291  -0.010021  -0.005313
   56  H  3  S    0.001320   0.001924   0.003300   0.026050   0.010496
   57  H  3  X    0.000000   0.000000  -0.000000   0.000001   0.000001
   58  H  3  Y   -0.007725  -0.002223  -0.007457  -0.042403  -0.011997
   59  H  3  Z   -0.002026  -0.000916  -0.017329  -0.029688  -0.010954
   60  H  4  S   -0.000343  -0.000845   0.116735  -0.228231  -0.140425
   61  H  4  S    0.017668   0.021870  -0.010615  -0.216705  -0.197219
   62  H  4  X   -0.000000  -0.000000   0.000000  -0.000000  -0.000001
   63  H  4  Y   -0.000210  -0.001542   0.014356  -0.016866   0.000653
   64  H  4  Z   -0.000618  -0.001017   0.012505  -0.005368  -0.009961
   65  H  4  S    0.001754   0.002000  -0.000005  -0.012551  -0.041449
   66  H  4  X    0.000000   0.000000  -0.000001  -0.000003  -0.000001
   67  H  4  Y    0.004816   0.006786  -0.009256  -0.020466  -0.049228
   68  H  4  Z    0.002425   0.003025   0.008816  -0.034200   0.011333
   69  H  5  S   -0.000187  -0.000921   0.126830  -0.203768   0.340562
   70  H  5  S    0.009291   0.019028   0.016115  -0.227765   0.434092
   71  H  5  X   -0.000000  -0.000000   0.000001  -0.000001   0.000001
   72  H  5  Y   -0.000082   0.001519  -0.014490   0.016642  -0.010188
   73  H  5  Z   -0.000421  -0.000949   0.011295  -0.004972   0.005089
   74  H  5  S    0.001697   0.001147   0.002394  -0.014230   0.045474
   75  H  5  X    0.000000   0.000000   0.000000  -0.000003   0.000005
   76  H  5  Y   -0.002348  -0.006011   0.000361   0.020634  -0.072090
   77  H  5  Z    0.001997   0.002964  -0.001763  -0.054013   0.040850

                      6          7          8          9         10
                   -0.4138    -0.2847    -0.2734    -0.0200    -0.0019
                     A          A          A          A          A   
    1  C  1  S   -0.000007  -0.000002   0.000619  -0.000003  -0.002986
    2  C  1  S   -0.036245   0.000000   0.050645   0.000004   0.084514
    3  C  1  S   -0.169235   0.000082   0.024144   0.000119   0.347200
    4  C  1  X   -0.000004   0.391843   0.000011   0.404340  -0.000004
    5  C  1  Y   -0.256792   0.000007  -0.134611   0.000005   0.028970
    6  C  1  Z   -0.319001  -0.000013   0.113549  -0.000009  -0.095922
    7  C  1  X   -0.000002   0.216079   0.000004   0.338958  -0.000015
    8  C  1  Y    0.059539   0.000006   0.031794  -0.000001   0.041923
    9  C  1  Z   -0.092118   0.000025  -0.021768   0.000050  -0.282343
   10  C  1 XX   -0.001123  -0.000001   0.000539  -0.000001   0.000913
   11  C  1 YY    0.010542   0.000000  -0.000661   0.000000  -0.002760
   12  C  1 ZZ   -0.009419   0.000001   0.000121   0.000001   0.001847
   13  C  1 XY    0.000001   0.000618   0.000001   0.000063   0.000000
   14  C  1 XZ   -0.000000   0.021653  -0.000000  -0.030024   0.000000
   15  C  1 YZ    0.013722  -0.000000   0.040456  -0.000001   0.001398
   16  C  1  S   -0.038242   0.000135   0.157801   0.000176   1.299771
   17  C  1  X   -0.000001   0.028847   0.000001   0.560528  -0.000017
   18  C  1  Y    0.051212  -0.000006   0.020075  -0.000009   0.035632
   19  C  1  Z   -0.014869   0.000037   0.040130   0.000040  -0.297834
   20  C  1 XX    0.000114  -0.000005  -0.005622  -0.000005  -0.039465
   21  C  1 YY   -0.043908  -0.000002   0.029159  -0.000012   0.024350
   22  C  1 ZZ    0.043794   0.000007  -0.023537   0.000017   0.015115
   23  C  1 XY   -0.000002   0.004486  -0.000003  -0.003256  -0.000003
   24  C  1 XZ    0.000002   0.003713  -0.000000  -0.041790  -0.000002
   25  C  1 YZ   -0.052447   0.000003  -0.035526   0.000002   0.027118
   26  C  2  S   -0.000900   0.000001  -0.000814   0.000003  -0.002496
   27  C  2  S    0.030744   0.000003  -0.151591   0.000001   0.056108
   28  C  2  S   -0.055021  -0.000029  -0.312075  -0.000108   0.364698
   29  C  2  X   -0.000006   0.443030  -0.000001  -0.412130  -0.000002
   30  C  2  Y    0.034014   0.000000   0.474857  -0.000010   0.043666
   31  C  2  Z    0.373467   0.000012  -0.256099   0.000003   0.082457
   32  C  2  X   -0.000001   0.256853   0.000002  -0.348669   0.000003
   33  C  2  Y   -0.065889   0.000005   0.243382  -0.000014   0.099030
   34  C  2  Z    0.045286   0.000048  -0.222968   0.000060  -0.005226
   35  C  2 XX   -0.001610   0.000001  -0.004818   0.000001  -0.001693
   36  C  2 YY    0.010954   0.000000  -0.000008  -0.000000  -0.004860
   37  C  2 ZZ   -0.009344  -0.000001   0.004826  -0.000001   0.006553
   38  C  2 XY   -0.000000  -0.000549  -0.000000  -0.000070  -0.000000
   39  C  2 XZ    0.000000  -0.020360  -0.000001  -0.032118   0.000000
   40  C  2 YZ    0.017795  -0.000001   0.020393  -0.000001  -0.003559
   41  C  2  S   -0.014704  -0.000111  -0.261087  -0.000170   0.871013
   42  C  2  X    0.000001   0.031577   0.000000  -0.512554   0.000005
   43  C  2  Y   -0.035728   0.000013   0.023906  -0.000002   0.191659
   44  C  2  Z   -0.015080   0.000041   0.007187   0.000048   0.148881
   45  C  2 XX   -0.003930   0.000003   0.006935   0.000007  -0.039544
   46  C  2 YY   -0.036639   0.000007  -0.022870   0.000008  -0.012497
   47  C  2 ZZ    0.040570  -0.000010   0.015935  -0.000015   0.052040
   48  C  2 XY    0.000002  -0.001282   0.000001   0.008316   0.000001
   49  C  2 XZ    0.000001  -0.007206  -0.000000  -0.037624  -0.000003
   50  C  2 YZ   -0.017405   0.000003  -0.012486   0.000001   0.033606
   51  H  3  S    0.231857  -0.000002   0.195724   0.000003   0.005447
   52  H  3  S    0.276594  -0.000026   0.249658   0.000013  -0.359421
   53  H  3  X    0.000000   0.015705   0.000000  -0.020927   0.000000
   54  H  3  Y   -0.009243   0.000000   0.006872  -0.000001  -0.010663
   55  H  3  Z    0.000985   0.000000  -0.015915  -0.000000  -0.001628
   56  H  3  S    0.036658  -0.000026   0.027576  -0.000003  -0.900800
   57  H  3  X    0.000001   0.015422   0.000001  -0.053461  -0.000004
   58  H  3  Y   -0.038522   0.000007  -0.017884  -0.000005   0.032154
   59  H  3  Z   -0.036432   0.000004  -0.029092  -0.000002   0.033222
   60  H  4  S    0.325677  -0.000003   0.145458  -0.000010   0.006902
   61  H  4  S    0.391510  -0.000015   0.193088  -0.000024  -0.403804
   62  H  4  X    0.000000   0.014405   0.000000   0.021799   0.000000
   63  H  4  Y    0.009676  -0.000000  -0.000890  -0.000001   0.009636
   64  H  4  Z    0.003250  -0.000001   0.005116  -0.000001   0.002087
   65  H  4  S    0.035863   0.000003   0.039768  -0.000019  -0.640463
   66  H  4  X    0.000002   0.015690  -0.000000   0.045364  -0.000004
   67  H  4  Y    0.055192  -0.000003   0.035479  -0.000004  -0.063562
   68  H  4  Z    0.052283  -0.000003   0.003281  -0.000000  -0.016696
   69  H  5  S   -0.073809   0.000001  -0.209719  -0.000008   0.004022
   70  H  5  S   -0.184611  -0.000008  -0.337565   0.000004  -0.419165
   71  H  5  X   -0.000000   0.014375   0.000000   0.022670   0.000001
   72  H  5  Y   -0.003218   0.000001  -0.000101   0.000001  -0.012182
   73  H  5  Z   -0.010872  -0.000001   0.000265  -0.000001   0.003436
   74  H  5  S   -0.043070   0.000015  -0.041763   0.000023  -1.135984
   75  H  5  X   -0.000002   0.012817  -0.000002   0.052805  -0.000002
   76  H  5  Y    0.051029   0.000002   0.043158   0.000000   0.036577
   77  H  5  Z   -0.005766  -0.000005  -0.023127   0.000002  -0.024839

                     11         12         13         14         15
                    0.0148     0.0250     0.0628     0.0711     0.0791
                     A          A          A          A          A   
    1  C  1  S   -0.001248   0.002377  -0.000002   0.007688   0.002862
    2  C  1  S    0.067951  -0.016971  -0.000005  -0.012444   0.043615
    3  C  1  S    0.186969  -0.129203   0.000042  -0.391488   0.152646
    4  C  1  X   -0.000005   0.000004  -0.172680   0.000007   0.000001
    5  C  1  Y   -0.066840  -0.118890  -0.000004   0.037287   0.011151
    6  C  1  Z   -0.036147   0.004897   0.000003   0.013863   0.054866
    7  C  1  X   -0.000010   0.000014  -0.200149   0.000026  -0.000000
    8  C  1  Y   -0.169408  -0.372986   0.000011   0.101363   0.009873
    9  C  1  Z   -0.272071   0.104356  -0.000014   0.030997  -0.044025
   10  C  1 XX    0.002834  -0.003152   0.000001  -0.007424  -0.006842
   11  C  1 YY    0.004861  -0.001728   0.000000   0.001118  -0.010866
   12  C  1 ZZ   -0.007694   0.004880  -0.000001   0.006306   0.017709
   13  C  1 XY   -0.000000   0.000000   0.000856   0.000000  -0.000000
   14  C  1 XZ    0.000000  -0.000000  -0.006073  -0.000001   0.000000
   15  C  1 YZ   -0.004822  -0.003794  -0.000000  -0.010466   0.002945
   16  C  1  S    0.437518  -1.735851   0.000307 -10.830912   1.497336
   17  C  1  X   -0.000025   0.000025   0.628605  -0.000141  -0.000027
   18  C  1  Y   -0.193160  -1.941783   0.000017   0.436293  -0.489878
   19  C  1  Z   -0.530797  -0.369064   0.000044  -4.835400  -1.567267
   20  C  1 XX   -0.011083   0.016500  -0.000009   0.081217   0.022364
   21  C  1 YY    0.022261  -0.051235   0.000006  -0.154447   0.016339
   22  C  1 ZZ   -0.011178   0.034735   0.000003   0.073230  -0.038702
   23  C  1 XY    0.000002   0.000001  -0.023875  -0.000003   0.000002
   24  C  1 XZ    0.000002   0.000004  -0.041275   0.000021  -0.000001
   25  C  1 YZ   -0.043415   0.099360  -0.000003   0.002660   0.114351
   26  C  2  S   -0.001257  -0.000720  -0.000000  -0.005498   0.005462
   27  C  2  S   -0.073566   0.047712  -0.000001   0.041135   0.030354
   28  C  2  S   -0.234467   0.242050  -0.000001   0.431567   0.050022
   29  C  2  X    0.000006   0.000000  -0.128421  -0.000007   0.000001
   30  C  2  Y   -0.085243  -0.046405   0.000001  -0.142588   0.060824
   31  C  2  Z   -0.027997   0.023064  -0.000002   0.004433  -0.076043
   32  C  2  X    0.000008  -0.000010  -0.147151  -0.000046   0.000007
   33  C  2  Y   -0.160345   0.092182  -0.000004   0.117118  -0.142070
   34  C  2  Z   -0.249173   0.148304   0.000001   0.042772  -0.065111
   35  C  2 XX   -0.003410   0.001487  -0.000000   0.001409  -0.010064
   36  C  2 YY   -0.001789   0.002132  -0.000000  -0.000545  -0.013417
   37  C  2 ZZ    0.005199  -0.003619   0.000000  -0.000865   0.023481
   38  C  2 XY   -0.000000  -0.000000  -0.003914  -0.000000   0.000000
   39  C  2 XZ    0.000000  -0.000000   0.013351   0.000000   0.000000
   40  C  2 YZ    0.008177   0.007620   0.000000   0.001994  -0.006652
   41  C  2  S   -0.504324   2.266153  -0.000219  11.133158  -0.290468
   42  C  2  X    0.000024  -0.000015   0.595749   0.000114   0.000008
   43  C  2  Y   -0.558853   1.019604   0.000004   0.313643  -0.060931
   44  C  2  Z   -0.625764  -0.233708   0.000109  -4.201292   1.876729
   45  C  2 XX    0.008156  -0.041057   0.000002  -0.076386   0.062924
   46  C  2 YY   -0.063038   0.032513  -0.000001   0.084861  -0.027153
   47  C  2 ZZ    0.054882   0.008544  -0.000001  -0.008475  -0.035771
   48  C  2 XY    0.000000   0.000000   0.039286  -0.000001   0.000001
   49  C  2 XZ    0.000000   0.000002   0.015472   0.000008  -0.000004
   50  C  2 YZ   -0.072833   0.084347   0.000000   0.058803   0.083007
   51  H  3  S    0.016632   0.014969  -0.000000  -0.022501  -0.017128
   52  H  3  S    0.672734  -0.541841   0.000007  -0.848698   0.215313
   53  H  3  X   -0.000000  -0.000000   0.005756   0.000000   0.000000
   54  H  3  Y    0.010278   0.000211  -0.000000   0.009793  -0.008415
   55  H  3  Z    0.008250  -0.000458  -0.000000   0.005308   0.007091
   56  H  3  S    2.557685  -1.414082  -0.000061   3.489594  -0.158351
   57  H  3  X    0.000005  -0.000005  -0.039027  -0.000006   0.000003
   58  H  3  Y   -0.083173   0.131641   0.000000   0.135879  -0.084247
   59  H  3  Z   -0.021301   0.003568  -0.000002   0.142677  -0.096807
   60  H  4  S   -0.009961   0.012654   0.000000  -0.023049  -0.023904
   61  H  4  S   -0.443382  -0.454890  -0.000025   0.593241  -0.345284
   62  H  4  X    0.000000   0.000000   0.003547  -0.000000  -0.000000
   63  H  4  Y    0.007595   0.002810  -0.000000  -0.000196   0.003612
   64  H  4  Z    0.007164   0.002845  -0.000000  -0.010615  -0.011249
   65  H  4  S   -2.021291  -3.121657  -0.000011   0.444998  -1.127194
   66  H  4  X   -0.000000  -0.000003  -0.070502   0.000018  -0.000002
   67  H  4  Y   -0.059491  -0.053088  -0.000005   0.032683  -0.012063
   68  H  4  Z   -0.007533  -0.053222   0.000001   0.145617   0.030195
   69  H  5  S    0.002716  -0.002540  -0.000002   0.025549  -0.037659
   70  H  5  S   -0.163249   0.860115  -0.000069   0.403189   0.098476
   71  H  5  X   -0.000000  -0.000000   0.004195  -0.000000   0.000000
   72  H  5  Y   -0.002514   0.004197   0.000000  -0.001336  -0.006216
   73  H  5  Z    0.003295  -0.007295  -0.000001  -0.002397  -0.014390
   74  H  5  S   -0.504151   3.803397   0.000044  -4.353323   0.579571
   75  H  5  X   -0.000004   0.000015  -0.031470   0.000026   0.000004
   76  H  5  Y    0.063564  -0.091251   0.000014  -0.001010  -0.090171
   77  H  5  Z    0.051426   0.069344  -0.000006   0.101671   0.038669

                     16         17         18         19         20
                    0.1117     0.1125     0.1167     0.1280     0.1461
                     A          A          A          A          A   
    1  C  1  S    0.005386  -0.000000  -0.039044  -0.014676  -0.014759
    2  C  1  S   -0.062428  -0.000039  -0.204514  -0.018777  -0.120097
    3  C  1  S   -1.009427  -0.000360   0.344812   0.517943   0.507709
    4  C  1  X    0.000141  -0.236223  -0.000013   0.000000   0.000012
    5  C  1  Y    0.111699   0.000078  -0.084248   0.238854   0.038811
    6  C  1  Z    0.003548   0.000000   0.121053   0.000928   0.130869
    7  C  1  X    0.000103  -0.188067  -0.000084  -0.000005   0.000049
    8  C  1  Y   -0.416932  -0.000291   0.298530  -0.932773  -0.171215
    9  C  1  Z   -1.252689  -0.000445  -1.534880  -0.371756   1.535915
   10  C  1 XX    0.001041  -0.000002   0.019949   0.016332  -0.039261
   11  C  1 YY   -0.000166  -0.000001   0.003734  -0.007916   0.048647
   12  C  1 ZZ   -0.000875   0.000004  -0.023683  -0.008415  -0.009386
   13  C  1 XY    0.000001  -0.001297   0.000000   0.000000  -0.000003
   14  C  1 XZ   -0.000005   0.006850   0.000001   0.000000  -0.000001
   15  C  1 YZ    0.024219   0.000015  -0.007475   0.009365  -0.017042
   16  C  1  S   -5.674299  -0.002105   5.169746   5.212593   0.131356
   17  C  1  X   -0.001395   2.233963   0.000094   0.000056   0.000015
   18  C  1  Y   -0.257847  -0.000548   1.823189  -6.069882  -2.417348
   19  C  1  Z   -3.651030  -0.001491  -1.887791   1.694728   0.559399
   20  C  1 XX    0.044605   0.000007  -0.162064  -0.036408  -0.096730
   21  C  1 YY    0.187260   0.000068   0.339725   0.197115  -0.658765
   22  C  1 ZZ   -0.231865  -0.000075  -0.177661  -0.160707   0.755495
   23  C  1 XY   -0.000010   0.034092  -0.000010   0.000004   0.000015
   24  C  1 XZ   -0.000026   0.056148  -0.000009  -0.000020   0.000038
   25  C  1 YZ   -0.062413  -0.000032  -0.012608   0.333740   0.321496
   26  C  2  S    0.008625   0.000017  -0.036235  -0.026045   0.024673
   27  C  2  S    0.113173   0.000099  -0.114129  -0.098397   0.012828
   28  C  2  S    0.486449  -0.000117   1.270721   0.764827  -2.176161
   29  C  2  X   -0.000145   0.240905   0.000023  -0.000004  -0.000005
   30  C  2  Y    0.182217   0.000104  -0.009249   0.001874  -0.093454
   31  C  2  Z    0.059185   0.000045  -0.085526  -0.008245  -0.068460
   32  C  2  X   -0.000132   0.229890   0.000052   0.000011  -0.000044
   33  C  2  Y   -0.366780  -0.000289   0.143432   0.396545  -0.518004
   34  C  2  Z   -1.386335  -0.000594  -0.866989   0.129296   1.072666
   35  C  2 XX   -0.004722  -0.000002   0.005632   0.013439  -0.011961
   36  C  2 YY    0.006112   0.000003   0.002378  -0.007748   0.017852
   37  C  2 ZZ   -0.001390  -0.000002  -0.008010  -0.005691  -0.005891
   38  C  2 XY   -0.000004   0.005930   0.000000  -0.000001  -0.000001
   39  C  2 XZ   -0.000002   0.004105   0.000000  -0.000000  -0.000001
   40  C  2 YZ   -0.016102  -0.000010   0.004063  -0.017151   0.001844
   41  C  2  S    4.100715   0.000458   2.577749  -0.886212  -1.934972
   42  C  2  X    0.001400  -2.231662  -0.000175  -0.000021   0.000033
   43  C  2  Y   -2.830494  -0.001403  -0.711361   3.492637   0.673122
   44  C  2  Z   -4.235755  -0.001967  -0.082628   2.233985   1.056743
   45  C  2 XX    0.008702   0.000048  -0.128496  -0.071148  -0.024609
   46  C  2 YY   -0.310444  -0.000157  -0.125271   0.039179   0.194276
   47  C  2 ZZ    0.301742   0.000109   0.253767   0.031969  -0.169666
   48  C  2 XY    0.000038  -0.061796  -0.000000   0.000004  -0.000009
   49  C  2 XZ   -0.000049   0.084310  -0.000014  -0.000007   0.000018
   50  C  2 YZ   -0.248665  -0.000175   0.099738   0.144820   0.184346
   51  H  3  S   -0.021787  -0.000015   0.009675  -0.086569   0.104652
   52  H  3  S    2.267282   0.001540  -0.582182  -1.767704   0.633649
   53  H  3  X    0.000000   0.000532  -0.000000  -0.000000   0.000000
   54  H  3  Y   -0.019846  -0.000014   0.011721   0.010883  -0.008259
   55  H  3  Z   -0.012415  -0.000008  -0.001688   0.015073  -0.005177
   56  H  3  S    6.212090   0.003427   0.065941  -3.811990  -0.739315
   57  H  3  X   -0.000045   0.119120  -0.000005  -0.000030  -0.000009
   58  H  3  Y   -0.615159  -0.000434   0.257268   0.277859   0.211366
   59  H  3  Z   -0.392181  -0.000255   0.073933   0.158979  -0.140764
   60  H  4  S    0.029228   0.000022  -0.002798  -0.057045   0.098318
   61  H  4  S   -1.075267  -0.000572  -1.671171  -3.127231   0.718566
   62  H  4  X   -0.000001   0.000347  -0.000000  -0.000000   0.000001
   63  H  4  Y   -0.010918  -0.000008  -0.009532  -0.022960  -0.023832
   64  H  4  Z   -0.009018  -0.000007  -0.000941  -0.011093   0.006007
   65  H  4  S   -3.884268  -0.002279  -0.743615  -5.145444  -1.954495
   66  H  4  X    0.000057  -0.089511  -0.000028  -0.000033   0.000043
   67  H  4  Y   -0.332512  -0.000177  -0.437639  -0.571408  -0.473199
   68  H  4  Z   -0.305348  -0.000170  -0.205695  -0.569168   0.402524
   69  H  5  S   -0.020106  -0.000003  -0.017966  -0.021553   0.225825
   70  H  5  S   -0.067632   0.000190  -2.727742   1.126026   2.818845
   71  H  5  X    0.000001  -0.001497  -0.000001   0.000001   0.000000
   72  H  5  Y   -0.007707  -0.000006   0.026129  -0.016548   0.011462
   73  H  5  Z    0.000405   0.000001  -0.013641   0.014759  -0.000301
   74  H  5  S   -1.307377  -0.000107  -4.201181   6.582987   2.779608
   75  H  5  X    0.000072  -0.122076  -0.000054   0.000009   0.000033
   76  H  5  Y    0.000579  -0.000047   0.666157  -0.423425   0.142985
   77  H  5  Z    0.101343   0.000092  -0.423727   0.169104   0.435755

                     21         22         23         24         25
                    0.1683     0.1951     0.2195     0.2530     0.2850
                     A          A          A          A          A   
    1  C  1  S    0.049007   0.019132  -0.000000  -0.005374   0.010103
    2  C  1  S    0.158136   0.013094   0.000004  -0.031058   0.139054
    3  C  1  S   -2.113885  -0.590147  -0.000012   0.758533  -0.391692
    4  C  1  X   -0.000019  -0.000010   0.002215   0.000003  -0.000007
    5  C  1  Y   -0.067802   0.123652   0.000009  -0.200603  -0.006874
    6  C  1  Z   -0.061593  -0.021280   0.000005   0.074717   0.019730
    7  C  1  X    0.000012   0.000045  -0.070655   0.000031  -0.000042
    8  C  1  Y   -0.098941   0.603768   0.000034  -0.228913  -0.088430
    9  C  1  Z   -1.022884   1.216324  -0.000172   0.760077  -2.396553
   10  C  1 XX    0.014581  -0.024910   0.000003  -0.015495   0.023956
   11  C  1 YY   -0.006294   0.025740  -0.000001   0.017472   0.073798
   12  C  1 ZZ   -0.008287  -0.000830  -0.000001  -0.001977  -0.097755
   13  C  1 XY   -0.000001   0.000006   0.047326   0.000001  -0.000002
   14  C  1 XZ    0.000000  -0.000002  -0.002697  -0.000000  -0.000002
   15  C  1 YZ   -0.037906   0.036956  -0.000009  -0.031676   0.013448
   16  C  1  S  -18.130167 -20.845674   0.002494 -10.344041  -2.449777
   17  C  1  X    0.000057   0.000032   0.019136   0.000066  -0.000119
   18  C  1  Y   -0.146659   2.464183  -0.000257  -1.754195   1.014793
   19  C  1  Z   -6.175847  -5.913578   0.000677  -2.270854  -4.053009
   20  C  1 XX    0.178808   0.120617  -0.000008   0.084373   0.274212
   21  C  1 YY    0.149222  -0.559309   0.000058  -0.212320  -0.132050
   22  C  1 ZZ   -0.328030   0.438692  -0.000051   0.127946  -0.142162
   23  C  1 XY   -0.000003  -0.000017  -0.175426  -0.000012   0.000029
   24  C  1 XZ    0.000023   0.000068  -0.015672   0.000026   0.000039
   25  C  1 YZ    0.446581  -0.187441   0.000066   0.856604  -0.222698
   26  C  2  S   -0.045611  -0.017815   0.000001  -0.004197  -0.034333
   27  C  2  S   -0.197366  -0.049617  -0.000002  -0.000171  -0.164584
   28  C  2  S    1.620577  -0.504863   0.000089  -0.363147   0.615130
   29  C  2  X    0.000021   0.000006  -0.040306  -0.000005   0.000003
   30  C  2  Y   -0.037768   0.061983  -0.000020   0.288409   0.038747
   31  C  2  Z   -0.109006  -0.007837  -0.000002   0.021652   0.251768
   32  C  2  X   -0.000019  -0.000116  -0.231114  -0.000074  -0.000024
   33  C  2  Y   -0.150807   0.782231  -0.000168   0.393763  -0.409797
   34  C  2  Z   -1.212988   1.116508  -0.000185   0.800991  -1.578469
   35  C  2 XX   -0.016270   0.012227  -0.000004   0.014729  -0.029585
   36  C  2 YY    0.011493   0.003787   0.000000  -0.021531  -0.022407
   37  C  2 ZZ    0.004777  -0.016014   0.000004   0.006802   0.051992
   38  C  2 XY   -0.000001   0.000002   0.022048   0.000002   0.000001
   39  C  2 XZ    0.000000   0.000002   0.009253  -0.000000   0.000002
   40  C  2 YZ    0.018442  -0.052489   0.000008   0.010140   0.007473
   41  C  2  S   18.362399  20.985890  -0.002518  10.989705   4.125415
   42  C  2  X   -0.000060  -0.000083  -0.170275  -0.000075   0.000053
   43  C  2  Y   -1.684595  -1.007964   0.000044   1.612364  -1.328728
   44  C  2  Z   -6.128030  -5.259593   0.000590  -2.407919  -1.670541
   45  C  2 XX   -0.183941  -0.165420   0.000008  -0.002753  -0.190316
   46  C  2 YY   -0.169876   0.198391  -0.000018   0.203480  -0.182086
   47  C  2 ZZ    0.353817  -0.032970   0.000010  -0.200728   0.372402
   48  C  2 XY   -0.000013   0.000026   0.257776   0.000005  -0.000024
   49  C  2 XZ    0.000015   0.000026  -0.113021   0.000013   0.000010
   50  C  2 YZ    0.334711   0.281453  -0.000022   0.614249  -0.342870
   51  H  3  S    0.178440  -0.178900   0.000032  -0.092235   0.024870
   52  H  3  S   -0.255458  -3.003960   0.000439  -2.937565   2.156502
   53  H  3  X    0.000000  -0.000000  -0.004141   0.000000   0.000001
   54  H  3  Y    0.013064  -0.002234   0.000001  -0.003104  -0.002737
   55  H  3  Z    0.004889  -0.007230   0.000001  -0.004756   0.012669
   56  H  3  S    3.156379   1.716821  -0.000184   0.154108   2.719821
   57  H  3  X   -0.000005   0.000041   0.524981   0.000031   0.000074
   58  H  3  Y    0.591782   0.628888  -0.000050  -0.236659  -0.717937
   59  H  3  Z    0.160981  -0.196287   0.000068   0.220739  -0.232985
   60  H  4  S   -0.162099   0.215854  -0.000026   0.013398  -0.016989
   61  H  4  S   -0.632692   3.601186  -0.000343  -0.762209  -1.145507
   62  H  4  X   -0.000001  -0.000001  -0.000615   0.000000   0.000000
   63  H  4  Y    0.019944   0.001963   0.000001  -0.000093  -0.015526
   64  H  4  Z    0.022071  -0.001329   0.000002   0.024439   0.008913
   65  H  4  S   -2.006657   0.897390  -0.000210  -0.459914  -0.890128
   66  H  4  X    0.000018  -0.000022  -0.731341  -0.000010   0.000074
   67  H  4  Y    0.136688   0.195001  -0.000050  -0.336779  -0.588867
   68  H  4  Z    0.217800   0.139302   0.000050   0.422274   0.838674
   69  H  5  S    0.029167  -0.053962   0.000002   0.156478  -0.048722
   70  H  5  S    1.517212   1.109541  -0.000206   2.752902  -1.926146
   71  H  5  X   -0.000001   0.000000   0.003104  -0.000001  -0.000001
   72  H  5  Y   -0.015768   0.001821   0.000000   0.016474   0.012577
   73  H  5  Z   -0.008077   0.015932  -0.000003  -0.017846   0.017983
   74  H  5  S   -1.449704  -3.066902   0.000428   0.019163  -2.753087
   75  H  5  X    0.000029   0.000156   0.833620   0.000073  -0.000025
   76  H  5  Y   -0.471078  -0.054714  -0.000006  -0.027786   0.833697
   77  H  5  Z   -0.042686   0.605940  -0.000102  -0.519458   0.867388

                     26         27         28         29         30
                    0.3081     0.3145     0.3552     0.3773     0.4045
                     A          A          A          A          A   
    1  C  1  S   -0.000003  -0.030268   0.000007  -0.019875   0.040013
    2  C  1  S   -0.000027  -0.127226   0.000010  -0.058997  -0.017102
    3  C  1  S    0.000083   1.380734  -0.000347   1.777463  -2.098985
    4  C  1  X   -0.058475   0.000014  -0.246050  -0.000005  -0.000000
    5  C  1  Y   -0.000038  -0.139901  -0.000001   0.279498   0.055037
    6  C  1  Z   -0.000061  -0.253996  -0.000002  -0.076283  -0.000505
    7  C  1  X   -0.346370   0.000125  -0.966994  -0.000016  -0.000042
    8  C  1  Y    0.000105   0.215190  -0.000115   3.105994   0.288489
    9  C  1  Z    0.000573   2.234735  -0.000077   1.710498  -1.791220
   10  C  1 XX   -0.000005  -0.026510   0.000000  -0.013527   0.018266
   11  C  1 YY   -0.000003   0.002064   0.000001   0.006406   0.008514
   12  C  1 ZZ    0.000008   0.024446  -0.000001   0.007121  -0.026780
   13  C  1 XY   -0.034815   0.000009   0.011151  -0.000005  -0.000001
   14  C  1 XZ   -0.018336   0.000004  -0.029624   0.000001  -0.000001
   15  C  1 YZ   -0.000003  -0.023277  -0.000001  -0.050442  -0.010039
   16  C  1  S    0.001612   5.294745   0.000303   0.067585  -6.270153
   17  C  1  X   -0.100639   0.000094  -1.112825  -0.000064  -0.000031
   18  C  1  Y   -0.000908  -3.607704  -0.000026   4.855620   1.573392
   19  C  1  Z    0.000572   1.477426   0.000107  -0.090160  -1.786980
   20  C  1 XX   -0.000028  -0.079763   0.000034  -0.074392   0.529966
   21  C  1 YY   -0.000149  -0.555433  -0.000061  -0.331477   0.608659
   22  C  1 ZZ    0.000177   0.635197   0.000027   0.405868  -1.138625
   23  C  1 XY    0.517746  -0.000130  -0.227571   0.000004   0.000019
   24  C  1 XZ    0.001689  -0.000001   0.079059   0.000001   0.000015
   25  C  1 YZ    0.000181   1.050720   0.000033   0.294215   0.275822
   26  C  2  S    0.000009   0.026835  -0.000005   0.010004   0.032204
   27  C  2  S    0.000034   0.107942  -0.000002   0.027737  -0.013015
   28  C  2  S   -0.000506  -1.516139   0.000152  -0.526087  -0.286345
   29  C  2  X   -0.112652   0.000025   0.044721   0.000002  -0.000002
   30  C  2  Y    0.000004   0.034540   0.000003   0.034629  -0.204062
   31  C  2  Z   -0.000005   0.020973  -0.000006  -0.018673   0.035137
   32  C  2  X   -0.636521   0.000136   0.442874  -0.000015   0.000013
   33  C  2  Y   -0.000158  -0.516680   0.000020   0.193978  -2.255007
   34  C  2  Z    0.000629   2.932879  -0.000116   2.002939  -2.935557
   35  C  2 XX    0.000006   0.027996  -0.000001   0.007175   0.005560
   36  C  2 YY    0.000014   0.051479  -0.000001   0.011062  -0.021014
   37  C  2 ZZ   -0.000020  -0.079475   0.000002  -0.018237   0.015455
   38  C  2 XY    0.035497  -0.000008  -0.010272  -0.000000   0.000002
   39  C  2 XZ    0.024780  -0.000005   0.015173  -0.000000   0.000000
   40  C  2 YZ   -0.000005  -0.021095   0.000001   0.006451  -0.007546
   41  C  2  S   -0.001456  -4.224810  -0.000168   0.662542   0.711720
   42  C  2  X   -0.465475   0.000059   0.536898   0.000006   0.000040
   43  C  2  Y    0.000636   2.623894   0.000041  -0.638557  -2.745574
   44  C  2  Z    0.001033   3.939225   0.000050   0.591421  -1.909212
   45  C  2 XX    0.000088   0.349957  -0.000026   0.144961   0.903080
   46  C  2 YY    0.000048   0.369230  -0.000018   0.769616  -0.959519
   47  C  2 ZZ   -0.000136  -0.719187   0.000043  -0.914577   0.056439
   48  C  2 XY   -0.363614   0.000103  -0.180275  -0.000026  -0.000011
   49  C  2 XZ   -0.165613   0.000040   0.328859   0.000001  -0.000015
   50  C  2 YZ    0.000224   1.140918   0.000010   0.723735   0.124030
   51  H  3  S   -0.000009  -0.022189  -0.000003   0.054780  -0.034209
   52  H  3  S   -0.000472  -2.887029  -0.000050  -3.277500   6.757675
   53  H  3  X    0.004935  -0.000001   0.000126   0.000000  -0.000000
   54  H  3  Y   -0.000001  -0.000720   0.000001   0.000570   0.002006
   55  H  3  Z   -0.000008  -0.034470   0.000000  -0.009390   0.008896
   56  H  3  S   -0.000774  -2.878843  -0.000071  -0.553514   3.003837
   57  H  3  X    1.523472  -0.000387  -0.386035  -0.000030   0.000107
   58  H  3  Y    0.000227   1.023482  -0.000010   0.475478  -1.420251
   59  H  3  Z   -0.000300  -1.075092   0.000039   0.749022  -0.888389
   60  H  4  S   -0.000017  -0.052060  -0.000002   0.026211   0.039456
   61  H  4  S    0.000111  -0.606386  -0.000129   4.329307   0.143229
   62  H  4  X    0.005052  -0.000001  -0.011886  -0.000000  -0.000000
   63  H  4  Y    0.000000  -0.000939   0.000001   0.004966   0.003903
   64  H  4  Z    0.000000   0.004325   0.000001   0.002795   0.000608
   65  H  4  S   -0.000318  -1.339876   0.000003   4.141059   0.204573
   66  H  4  X    1.288402  -0.000344   0.716557   0.000127   0.000047
   67  H  4  Y    0.000153   0.133294  -0.000056  -0.092225  -0.297013
   68  H  4  Z    0.000175   0.794032   0.000018   1.546886  -0.435069
   69  H  5  S    0.000008   0.045288  -0.000002   0.009702   0.021336
   70  H  5  S    0.000714   3.281970   0.000198  -2.735906   0.549586
   71  H  5  X   -0.006433   0.000001  -0.009988  -0.000000  -0.000001
   72  H  5  Y    0.000001   0.008308  -0.000001   0.014464   0.000530
   73  H  5  Z   -0.000007  -0.032695   0.000001  -0.018063   0.001460
   74  H  5  S    0.000992   3.642197   0.000011  -3.876997  -0.947784
   75  H  5  X   -0.462974   0.000206   1.622097  -0.000094   0.000032
   76  H  5  Y   -0.000102  -0.531510  -0.000035  -0.383634  -0.220180
   77  H  5  Z    0.000105   0.422699   0.000047  -0.916567  -0.191043

                     31         32         33         34         35
                    0.4382     0.4436     0.4480     0.4762     0.4837
                     A          A          A          A          A   
    1  C  1  S    0.065605   0.012540  -0.000038   0.020237  -0.000038
    2  C  1  S    0.031034  -0.049315  -0.000007  -0.027363  -0.000087
    3  C  1  S   -4.263574   0.822478   0.002065  -2.090359   0.002186
    4  C  1  X    0.000061   0.000058   0.251059   0.000000   0.051293
    5  C  1  Y    0.027803  -0.064930   0.000014  -0.130227   0.000062
    6  C  1  Z    0.082671   0.000097  -0.000034  -0.022915  -0.000302
    7  C  1  X    0.000639   0.000525   1.813941  -0.000000   0.356657
    8  C  1  Y   -0.620887   1.244783  -0.000194  -3.535663  -0.000854
    9  C  1  Z    5.861982   3.847597  -0.001353  -0.828339  -0.000175
   10  C  1 XX    0.018054  -0.008620  -0.000007  -0.013254  -0.000015
   11  C  1 YY   -0.026383  -0.005519   0.000005   0.012542  -0.000001
   12  C  1 ZZ    0.008329   0.014138   0.000002   0.000712   0.000016
   13  C  1 XY    0.000002  -0.000000   0.002177  -0.000003   0.005168
   14  C  1 XZ   -0.000009  -0.000006  -0.013803  -0.000008   0.031596
   15  C  1 YZ    0.020016   0.011659  -0.000009  -0.011294   0.000034
   16  C  1  S   -6.764653  -4.086524   0.002463   3.793450   0.004752
   17  C  1  X    0.000364   0.000299   1.145077   0.000070  -0.153491
   18  C  1  Y   -0.594437   1.637416  -0.000212  -0.755977   0.000012
   19  C  1  Z    1.124991   0.223494  -0.000283   0.785640   0.000392
   20  C  1 XX    0.578660   0.271450  -0.000257  -0.476264  -0.000458
   21  C  1 YY   -1.917530  -0.799039   0.000270   0.464484  -0.000990
   22  C  1 ZZ    1.338870   0.527589  -0.000013   0.011780   0.001448
   23  C  1 XY   -0.000000  -0.000101  -0.263131  -0.000028   0.322341
   24  C  1 XZ    0.000190   0.000147  -0.119520   0.000400  -1.460376
   25  C  1 YZ    0.631295  -2.638601   0.000518  -0.126327   0.000159
   26  C  2  S    0.062275   0.029268  -0.000005   0.055207   0.000055
   27  C  2  S    0.000107  -0.024540   0.000024   0.017622   0.000099
   28  C  2  S   -6.369964  -2.564277   0.000756  -4.420245  -0.004952
   29  C  2  X   -0.000058  -0.000067  -0.254950  -0.000073   0.253589
   30  C  2  Y    0.126671   0.067091  -0.000047  -0.134980   0.000025
   31  C  2  Z    0.029983  -0.082186   0.000010  -0.184735  -0.000265
   32  C  2  X   -0.000386  -0.000373  -0.688396  -0.000406   1.545696
   33  C  2  Y   -0.748685   3.199195  -0.000533  -1.506642  -0.001033
   34  C  2  Z    3.012750   2.856247  -0.000393  -2.405123  -0.000712
   35  C  2 XX    0.033042  -0.000491  -0.000001  -0.009803   0.000029
   36  C  2 YY   -0.012908   0.027030  -0.000002   0.016113  -0.000007
   37  C  2 ZZ   -0.020133  -0.026539   0.000003  -0.006310  -0.000022
   38  C  2 XY    0.000003  -0.000001   0.004529   0.000001  -0.003729
   39  C  2 XZ   -0.000005  -0.000006  -0.015171  -0.000001  -0.001995
   40  C  2 YZ   -0.021309   0.054815  -0.000011   0.012665  -0.000018
   41  C  2  S   -0.791226   1.405965  -0.000203  -4.858051  -0.005794
   42  C  2  X   -0.000313  -0.000326  -1.182008  -0.000159   0.532361
   43  C  2  Y    0.505431   0.038012  -0.000095  -0.266545  -0.000492
   44  C  2  Z   -0.216650  -0.149035   0.000140   0.158927   0.000332
   45  C  2 XX    0.039238   0.222808   0.000026  -0.130368   0.000298
   46  C  2 YY    0.498432   1.375153  -0.000339   0.102287   0.000594
   47  C  2 ZZ   -0.537670  -1.597961   0.000313   0.028081  -0.000892
   48  C  2 XY   -0.000193  -0.000202  -0.659431  -0.000315   0.986159
   49  C  2 XZ    0.000351   0.000326   1.056078  -0.000077   0.326207
   50  C  2 YZ   -0.370671  -0.819985   0.000369  -0.376144  -0.000840
   51  H  3  S   -0.095465   0.186752  -0.000018   0.126127  -0.000073
   52  H  3  S    1.249266  -3.194551   0.000074   6.597260   0.004853
   53  H  3  X   -0.000004  -0.000005  -0.017121  -0.000007   0.022603
   54  H  3  Y   -0.018927   0.012968  -0.000003   0.028900  -0.000003
   55  H  3  Z   -0.020980   0.025598  -0.000003   0.002540  -0.000024
   56  H  3  S   -0.044524  -0.198038   0.000026   0.928723   0.001068
   57  H  3  X    0.000192   0.000208   0.746886   0.000508  -1.420759
   58  H  3  Y   -0.422007  -0.188698   0.000260  -3.278789  -0.002202
   59  H  3  Z   -0.109618   1.448364  -0.000322  -0.988240   0.000502
   60  H  4  S   -0.041302  -0.084507   0.000002   0.016351   0.000044
   61  H  4  S    6.081928   9.468365  -0.003459  -5.708919  -0.001418
   62  H  4  X    0.000003   0.000005   0.016962   0.000003  -0.004502
   63  H  4  Y    0.007664  -0.018121   0.000002   0.004086   0.000001
   64  H  4  Z   -0.005884  -0.011695   0.000003  -0.001258  -0.000029
   65  H  4  S    1.416420   1.904866  -0.000732  -0.882602  -0.000202
   66  H  4  X   -0.000150  -0.000227  -1.301818  -0.000003  -0.176261
   67  H  4  Y    1.098726   3.023484  -0.001163  -1.584603  -0.000661
   68  H  4  Z    1.834035   0.141635  -0.000364  -1.164540   0.000708
   69  H  5  S   -0.177165   0.089591   0.000002   0.105963  -0.000145
   70  H  5  S    9.088839  -2.525052  -0.000983   4.488302   0.000112
   71  H  5  X    0.000001  -0.000000   0.008243  -0.000003   0.013974
   72  H  5  Y   -0.006716  -0.005764   0.000004   0.021721  -0.000013
   73  H  5  Z    0.007340  -0.004193  -0.000002   0.003053   0.000005
   74  H  5  S    1.546211  -0.517158  -0.000263   0.760407  -0.000535
   75  H  5  X    0.000119  -0.000044  -0.437501   0.000350  -1.185173
   76  H  5  Y   -2.123419   1.491897   0.000144  -2.459625   0.000736
   77  H  5  Z    1.126376   0.993148  -0.000361   1.416373   0.000843

                     36         37         38         39         40
                    0.4859     0.4933     0.5047     0.5567     0.5625
                     A          A          A          A          A   
    1  C  1  S    0.009190   0.104319  -0.025879   0.079999   0.000001
    2  C  1  S   -0.107945  -0.006435  -0.027137   0.022665   0.000024
    3  C  1  S   -1.382197  -8.249892   4.336707  -8.515076  -0.000449
    4  C  1  X   -0.000025   0.000060  -0.000014   0.000030   0.070018
    5  C  1  Y    0.173895   0.007352  -0.112525  -0.065063   0.000039
    6  C  1  Z   -0.255046   0.321495  -0.086756  -0.145310  -0.000008
    7  C  1  X   -0.000213   0.000328   0.000121  -0.000192   1.358723
    8  C  1  Y   -0.509163  -1.032741  -7.121987  -0.152690   0.000479
    9  C  1  Z   -2.801709  -2.687494   1.445560  -1.755971   0.002065
   10  C  1 XX   -0.010916   0.008178  -0.006140   0.026910   0.000008
   11  C  1 YY    0.012569   0.032311  -0.009114  -0.007976  -0.000007
   12  C  1 ZZ   -0.001652  -0.040490   0.015254  -0.018934  -0.000001
   13  C  1 XY   -0.000001   0.000003   0.000001  -0.000001   0.002640
   14  C  1 XZ   -0.000020   0.000015  -0.000002   0.000012  -0.055662
   15  C  1 YZ    0.056367  -0.001834   0.013088  -0.028199  -0.000013
   16  C  1  S    4.512597  -4.898894  -4.846855 -14.789134  -0.002261
   17  C  1  X    0.000104   0.000059   0.000023  -0.000064   0.224154
   18  C  1  Y   -0.160241  -0.608916  -1.896702   0.959866  -0.000288
   19  C  1  Z    0.311297  -0.186978  -0.985471  -4.905574  -0.000774
   20  C  1 XX   -0.300284   0.288235   0.559411  -0.026520  -0.000322
   21  C  1 YY    0.447334   2.676267  -0.680838  -1.799170  -0.000807
   22  C  1 ZZ   -0.147050  -2.964502   0.121428   1.825690   0.001128
   23  C  1 XY   -0.000173   0.000093   0.000126  -0.000447   1.614821
   24  C  1 XZ    0.000859  -0.000803   0.000128  -0.000224   2.160676
   25  C  1 YZ    0.792300   0.417620   0.281259   0.149057   0.000770
   26  C  2  S   -0.006060  -0.087777  -0.030424  -0.052259   0.000012
   27  C  2  S    0.095677  -0.080669  -0.009928   0.134597   0.000053
   28  C  2  S    2.237421  10.047091   2.702172   3.022344  -0.001326
   29  C  2  X   -0.000178   0.000088  -0.000005   0.000104  -0.319823
   30  C  2  Y    0.072980  -0.024214  -0.018981   0.004546  -0.000061
   31  C  2  Z   -0.200226   0.172950  -0.000636  -0.087137   0.000054
   32  C  2  X   -0.000948   0.000728  -0.000170   0.000019  -1.411665
   33  C  2  Y   -0.508525   1.062906   3.253166   0.604267   0.000050
   34  C  2  Z   -2.976242  -3.107179   2.598162  -1.611226   0.002081
   35  C  2 XX    0.013116  -0.050060   0.002946   0.011074   0.000003
   36  C  2 YY   -0.014507   0.004367   0.007002  -0.027211  -0.000005
   37  C  2 ZZ    0.001391   0.045694  -0.009948   0.016137   0.000002
   38  C  2 XY    0.000005  -0.000002  -0.000001  -0.000008   0.027521
   39  C  2 XZ    0.000002  -0.000003  -0.000001   0.000003  -0.032908
   40  C  2 YZ   -0.032539   0.006446   0.010093  -0.013271  -0.000017
   41  C  2  S   -4.256348   5.178812   5.839957  15.744320   0.003101
   42  C  2  X   -0.000354   0.000116  -0.000028   0.000122  -0.386990
   43  C  2  Y   -0.234444   0.458168   0.969185  -1.218976   0.000135
   44  C  2  Z    0.346078  -0.698977  -0.713572  -3.866666  -0.000363
   45  C  2 XX    0.255745  -0.330400  -0.026306  -0.388070   0.000056
   46  C  2 YY    0.335321  -0.515327   1.468153  -0.969011   0.000007
   47  C  2 ZZ   -0.591066   0.845727  -1.441848   1.357081  -0.000063
   48  C  2 XY   -0.000709   0.000412   0.000008   0.000041   0.054002
   49  C  2 XZ   -0.000224   0.000205   0.000077  -0.000342   1.896554
   50  C  2 YZ   -0.975164   0.224226  -0.327898   0.998460   0.001045
   51  H  3  S   -0.188349  -0.027950   0.047736  -0.153257  -0.000038
   52  H  3  S    2.348307  -3.783662  -7.333946  -2.858015  -0.002893
   53  H  3  X   -0.000015   0.000009   0.000001   0.000002  -0.002026
[...]
 II,JST,KST,LST =  2  1  1  1 NREC =         1 INTLOC =    1
 II,JST,KST,LST =  3  1  1  1 NREC =         1 INTLOC =    1
 II,JST,KST,LST =  4  1  1  1 NREC =         1 INTLOC =    1
 II,JST,KST,LST =  5  1  1  1 NREC =         1 INTLOC =    1
 II,JST,KST,LST =  6  1  1  1 NREC =         1 INTLOC =    1
 II,JST,KST,LST =  7  1  1  1 NREC =         1 INTLOC =    4
 II,JST,KST,LST =  8  1  1  1 NREC =         1 INTLOC =   49
 II,JST,KST,LST =  9  1  1  1 NREC =         1 INTLOC =  436
 II,JST,KST,LST = 10  1  1  1 NREC =         1 INTLOC =  436
 II,JST,KST,LST = 11  1  1  1 NREC =         1 INTLOC =  698
 II,JST,KST,LST = 12  1  1  1 NREC =         1 INTLOC =  698
 II,JST,KST,LST = 13  1  1  1 NREC =         1 INTLOC =  698
 II,JST,KST,LST = 14  1  1  1 NREC =         1 INTLOC =  698
 II,JST,KST,LST = 15  1  1  1 NREC =         1 INTLOC = 1679
 II,JST,KST,LST = 16  1  1  1 NREC =         1 INTLOC = 3428
 II,JST,KST,LST = 17  1  1  1 NREC =         1 INTLOC = 4034
 II,JST,KST,LST = 18  1  1  1 NREC =         1 INTLOC = 4946
 II,JST,KST,LST = 19  1  1  1 NREC =         2 INTLOC = 8834
 II,JST,KST,LST = 20  1  1  1 NREC =         2 INTLOC = 8834
 II,JST,KST,LST = 21  1  1  1 NREC =         2 INTLOC = 8834
 II,JST,KST,LST = 22  1  1  1 NREC =         3 INTLOC = 1268
 II,JST,KST,LST = 23  1  1  1 NREC =         3 INTLOC = 7315
 II,JST,KST,LST = 24  1  1  1 NREC =         7 INTLOC = 6656
 II,JST,KST,LST = 25  1  1  1 NREC =         7 INTLOC = 6656
 II,JST,KST,LST = 26  1  1  1 NREC =         7 INTLOC = 6656
 II,JST,KST,LST = 27  1  1  1 NREC =         8 INTLOC = 3262
 II,JST,KST,LST = 28  1  1  1 NREC =         9 INTLOC = 5519
 II,JST,KST,LST = 29  1  1  1 NREC =        10 INTLOC = 2387
 II,JST,KST,LST = 30  1  1  1 NREC =        10 INTLOC =13215
 II,JST,KST,LST = 31  1  1  1 NREC =        12 INTLOC = 7737
 II,JST,KST,LST = 32  1  1  1 NREC =        16 INTLOC = 6050
 II,JST,KST,LST = 33  1  1  1 NREC =        16 INTLOC = 6050
 II,JST,KST,LST = 34  1  1  1 NREC =        19 INTLOC = 5721
 II,JST,KST,LST = 35  1  1  1 NREC =        19 INTLOC =14853
 II,JST,KST,LST = 36  1  1  1 NREC =        20 INTLOC = 5097
 II,JST,KST,LST = 37  1  1  1 NREC =        21 INTLOC = 4794
 II,JST,KST,LST = 38  1  1  1 NREC =        23 INTLOC =11224
 II,JST,KST,LST = 39  1  1  1 NREC =        28 INTLOC = 3568
 II,JST,KST,LST = 40  1  1  1 NREC =        37 INTLOC = 6199
 II,JST,KST,LST = 41  1  1  1 NREC =        37 INTLOC =13569
 II,JST,KST,LST = 42  1  1  1 NREC =        40 INTLOC =  492
 II,JST,KST,LST = 43  1  1  1 NREC =        59 INTLOC =  377
 II,JST,KST,LST = 44  1  1  1 NREC =        59 INTLOC =  377
 II,JST,KST,LST = 45  1  1  1 NREC =        59 INTLOC =10795
 II,JST,KST,LST = 46  1  1  1 NREC =        64 INTLOC = 4730
 II,JST,KST,LST = 47  1  1  1 NREC =        67 INTLOC =  551
 II,JST,KST,LST = 48  1  1  1 NREC =        73 INTLOC =10580
 II,JST,KST,LST = 49  1  1  1 NREC =       100 INTLOC = 1024
 II,JST,KST,LST = 50  1  1  1 NREC =       100 INTLOC = 1024
 II,JST,KST,LST = 51  1  1  1 NREC =       104 INTLOC = 9077
 II,JST,KST,LST = 52  1  1  1 NREC =       128 INTLOC = 7372
 II,JST,KST,LST = 53  1  1  1 NREC =       128 INTLOC = 7372
 II,JST,KST,LST = 54  1  1  1 NREC =       134 INTLOC = 8586
 II,JST,KST,LST = 55  1  1  1 NREC =       142 INTLOC = 9287
 II,JST,KST,LST = 56  1  1  1 NREC =       145 INTLOC =10454
 II,JST,KST,LST = 57  1  1  1 NREC =       163 INTLOC = 6652
 II,JST,KST,LST = 58  1  1  1 NREC =       167 INTLOC = 6976
 II,JST,KST,LST = 59  1  1  1 NREC =       168 INTLOC =13600
 II,JST,KST,LST = 60  1  1  1 NREC =       178 INTLOC = 8634
 II,JST,KST,LST = 61  1  1  1 NREC =       189 INTLOC = 8876
 II,JST,KST,LST = 62  1  1  1 NREC =       199 INTLOC = 1407
 II,JST,KST,LST = 63  1  1  1 NREC =       204 INTLOC = 7903
 II,JST,KST,LST = 64  1  1  1 NREC =       206 INTLOC = 8137
 II,JST,KST,LST = 65  1  1  1 NREC =       217 INTLOC =10649
 II,JST,KST,LST = 66  1  1  1 NREC =       224 INTLOC = 7070
 SCHWARZ INEQUALITY TEST SKIPPED       75155 INTEGRAL BLOCKS.
 TOTAL NUMBER OF NONZERO TWO-ELECTRON INTEGRALS =            54092130
       3613 INTEGRAL RECORDS WERE STORED ON DISK FILE  8.
  ...... END OF TWO-ELECTRON INTEGRALS .....
 CPU     0: STEP CPU TIME=     0.26 TOTAL CPU TIME=         23.0 (      0.4 MIN)
 TOTAL WALL CLOCK TIME=         23.4 SECONDS, CPU UTILIZATION IS    98.29%

          ---------------------------------------------
          MONOMER ELECTROSTATIC INTERACTION (OWN BASIS)
          ---------------------------------------------

          -------------
          GUESS OPTIONS
          -------------
          GUESS =MOSAVED           NORB  =       0          NORDER=       0
          MIX   =       F          PRTMO =       F          PUNMO =       F
          TOLZ  = 1.0E-08          TOLE  = 1.0E-05
          SYMDEN=       F          PURIFY=       F

 INITIAL GUESS ORBITALS GENERATED BY MOSAVED  ROUTINE.

 STATISTICS FOR GENERATION OF SYMMETRY ORBITAL -Q- MATRIX
 NUMBER OF CARTESIAN ATOMIC ORBITALS=        154
 NUMBER OF SPHERICAL CONTAMINANTS DROPPED=     8
 NUMBER OF LINEARLY DEPENDENT MOS DROPPED=     0
 TOTAL NUMBER OF MOS IN VARIATION SPACE=     146
 ...... END OF INITIAL ORBITAL SELECTION ......
 CPU     0: STEP CPU TIME=     0.01 TOTAL CPU TIME=         23.0 (      0.4 MIN)
 TOTAL WALL CLOCK TIME=         23.4 SECONDS, CPU UTILIZATION IS    98.29%

          ---------------------------
                  UHF SCF CALCULATION
          ---------------------------

 FINAL UHF ENERGY IS     -155.3162653366 AFTER   1 ITERATIONS
 ...... END OF UHF CALCULATION ......
 CPU     0: STEP CPU TIME=     0.07 TOTAL CPU TIME=         23.0 (      0.4 MIN)
 TOTAL WALL CLOCK TIME=         23.4 SECONDS, CPU UTILIZATION IS    98.29%

          -------------
          GUESS OPTIONS
          -------------
          GUESS =MOSAVED           NORB  =       0          NORDER=       0
          MIX   =       F          PRTMO =       F          PUNMO =       F
          TOLZ  = 1.0E-08          TOLE  = 1.0E-05
          SYMDEN=       F          PURIFY=       F

 INITIAL GUESS ORBITALS GENERATED BY MOSAVED  ROUTINE.

 STATISTICS FOR GENERATION OF SYMMETRY ORBITAL -Q- MATRIX
 NUMBER OF CARTESIAN ATOMIC ORBITALS=        154
 NUMBER OF SPHERICAL CONTAMINANTS DROPPED=     8
 NUMBER OF LINEARLY DEPENDENT MOS DROPPED=     0
 TOTAL NUMBER OF MOS IN VARIATION SPACE=     146
 ...... END OF INITIAL ORBITAL SELECTION ......
 CPU     0: STEP CPU TIME=     0.00 TOTAL CPU TIME=         23.0 (      0.4 MIN)
 TOTAL WALL CLOCK TIME=         23.4 SECONDS, CPU UTILIZATION IS    98.29%

          ---------------------------
                  UHF SCF CALCULATION
          ---------------------------

 DIRECT SCF CALCULATION, SCHWRZ=T   FDIFF=T
 SCHWARZ INEQUALITY OVERHEAD:     11926 INTEGRALS, T=        0.00

 FINAL UHF ENERGY IS     -331.0247165303 AFTER   1 ITERATIONS
 ...... END OF UHF CALCULATION ......
 CPU     0: STEP CPU TIME=     0.25 TOTAL CPU TIME=         23.3 (      0.4 MIN)
 TOTAL WALL CLOCK TIME=         23.7 SECONDS, CPU UTILIZATION IS    98.27%

 XEDA STEP ENERGY SUMMATION
 ETOT =       -155.31626534     ENUC =        102.31471943
 EEXCH=        -22.95132655

          --------------------------------------------------
          MONOMER EXCHANGE-REPULSION INTERACTION (OWN BASIS)
          --------------------------------------------------

          -------------
          GUESS OPTIONS
          -------------
          GUESS =MOSAVED           NORB  =       0          NORDER=       0
          MIX   =       F          PRTMO =       F          PUNMO =       F
          TOLZ  = 1.0E-08          TOLE  = 1.0E-05
          SYMDEN=       F          PURIFY=       F

 INITIAL GUESS ORBITALS GENERATED BY MOSAVED  ROUTINE.

 STATISTICS FOR GENERATION OF SYMMETRY ORBITAL -Q- MATRIX
 NUMBER OF CARTESIAN ATOMIC ORBITALS=        154
 NUMBER OF SPHERICAL CONTAMINANTS DROPPED=     8
 NUMBER OF LINEARLY DEPENDENT MOS DROPPED=     0
 TOTAL NUMBER OF MOS IN VARIATION SPACE=     146
 ...... END OF INITIAL ORBITAL SELECTION ......
 CPU     0: STEP CPU TIME=     0.01 TOTAL CPU TIME=         23.3 (      0.4 MIN)
 TOTAL WALL CLOCK TIME=         23.7 SECONDS, CPU UTILIZATION IS    98.27%

          ---------------------------
                  UHF SCF CALCULATION
          ---------------------------

 FINAL UHF ENERGY IS     -154.6227573718 AFTER   1 ITERATIONS
 ...... END OF UHF CALCULATION ......
 CPU     0: STEP CPU TIME=     0.07 TOTAL CPU TIME=         23.4 (      0.4 MIN)
 TOTAL WALL CLOCK TIME=         23.8 SECONDS, CPU UTILIZATION IS    98.27%

 XEDA STEP ENERGY SUMMATION
 ETOT =       -154.62275737     ENUC =        102.31471943

          ---------------------------------------------
          MONOMER ELECTROSTATIC INTERACTION (ALL BASIS)
          ---------------------------------------------

          -------------
          GUESS OPTIONS
          -------------
          GUESS =MOSAVED           NORB  =       0          NORDER=       0
          MIX   =       F          PRTMO =       F          PUNMO =       F
          TOLZ  = 1.0E-08          TOLE  = 1.0E-05
          SYMDEN=       F          PURIFY=       F

 INITIAL GUESS ORBITALS GENERATED BY MOSAVED  ROUTINE.

 STATISTICS FOR GENERATION OF SYMMETRY ORBITAL -Q- MATRIX
 NUMBER OF CARTESIAN ATOMIC ORBITALS=        154
 NUMBER OF SPHERICAL CONTAMINANTS DROPPED=     8
 NUMBER OF LINEARLY DEPENDENT MOS DROPPED=     0
 TOTAL NUMBER OF MOS IN VARIATION SPACE=     146
 ...... END OF INITIAL ORBITAL SELECTION ......
 CPU     0: STEP CPU TIME=     0.01 TOTAL CPU TIME=         23.4 (      0.4 MIN)
 TOTAL WALL CLOCK TIME=         23.8 SECONDS, CPU UTILIZATION IS    98.27%

          ---------------------------
                  UHF SCF CALCULATION
          ---------------------------

 FINAL UHF ENERGY IS     -155.3219738603 AFTER   1 ITERATIONS
 ...... END OF UHF CALCULATION ......
 CPU     0: STEP CPU TIME=     0.07 TOTAL CPU TIME=         23.4 (      0.4 MIN)
 TOTAL WALL CLOCK TIME=         23.8 SECONDS, CPU UTILIZATION IS    98.27%

          -------------
          GUESS OPTIONS
          -------------
          GUESS =MOSAVED           NORB  =       0          NORDER=       0
          MIX   =       F          PRTMO =       F          PUNMO =       F
          TOLZ  = 1.0E-08          TOLE  = 1.0E-05
          SYMDEN=       F          PURIFY=       F

 INITIAL GUESS ORBITALS GENERATED BY MOSAVED  ROUTINE.

 STATISTICS FOR GENERATION OF SYMMETRY ORBITAL -Q- MATRIX
 NUMBER OF CARTESIAN ATOMIC ORBITALS=        154
 NUMBER OF SPHERICAL CONTAMINANTS DROPPED=     8
 NUMBER OF LINEARLY DEPENDENT MOS DROPPED=     0
 TOTAL NUMBER OF MOS IN VARIATION SPACE=     146
 ...... END OF INITIAL ORBITAL SELECTION ......
 CPU     0: STEP CPU TIME=     0.01 TOTAL CPU TIME=         23.4 (      0.4 MIN)
 TOTAL WALL CLOCK TIME=         23.9 SECONDS, CPU UTILIZATION IS    98.27%

          ---------------------------
                  UHF SCF CALCULATION
          ---------------------------

 DIRECT SCF CALCULATION, SCHWRZ=T   FDIFF=T
 SCHWARZ INEQUALITY OVERHEAD:     11926 INTEGRALS, T=        0.00

 FINAL UHF ENERGY IS     -331.0478085371 AFTER   1 ITERATIONS
 ...... END OF UHF CALCULATION ......
 CPU     0: STEP CPU TIME=     0.25 TOTAL CPU TIME=         23.7 (      0.4 MIN)
 TOTAL WALL CLOCK TIME=         24.1 SECONDS, CPU UTILIZATION IS    98.26%

 XEDA STEP ENERGY SUMMATION
 ETOT =       -155.32197386     ENUC =        102.31471943
 EEXCH=        -22.95168758

          --------------------------------------------------
          MONOMER EXCHANGE-REPULSION INTERACTION (ALL BASIS)
          --------------------------------------------------

          -------------
          GUESS OPTIONS
          -------------
          GUESS =MOSAVED           NORB  =       0          NORDER=       0
          MIX   =       F          PRTMO =       F          PUNMO =       F
          TOLZ  = 1.0E-08          TOLE  = 1.0E-05
          SYMDEN=       F          PURIFY=       F

 INITIAL GUESS ORBITALS GENERATED BY MOSAVED  ROUTINE.

 STATISTICS FOR GENERATION OF SYMMETRY ORBITAL -Q- MATRIX
 NUMBER OF CARTESIAN ATOMIC ORBITALS=        154
 NUMBER OF SPHERICAL CONTAMINANTS DROPPED=     8
 NUMBER OF LINEARLY DEPENDENT MOS DROPPED=     0
 TOTAL NUMBER OF MOS IN VARIATION SPACE=     146
 ...... END OF INITIAL ORBITAL SELECTION ......
 CPU     0: STEP CPU TIME=     0.01 TOTAL CPU TIME=         23.7 (      0.4 MIN)
 TOTAL WALL CLOCK TIME=         24.1 SECONDS, CPU UTILIZATION IS    98.26%

          ---------------------------
                  UHF SCF CALCULATION
          ---------------------------

 FINAL UHF ENERGY IS     -154.6278273648 AFTER   1 ITERATIONS
 ...... END OF UHF CALCULATION ......
 CPU     0: STEP CPU TIME=     0.07 TOTAL CPU TIME=         23.8 (      0.4 MIN)
 TOTAL WALL CLOCK TIME=         24.2 SECONDS, CPU UTILIZATION IS    98.26%

 XEDA STEP ENERGY SUMMATION
 ETOT =       -154.62782736     ENUC =        102.31471943

          --------------------------------
          RESULTS OF INTERACTION ANALYSIS
          --------------------------------

     ENERGY TERMS
     T   ELECTRON KINETIC AND COULOMB POTENTIAL
     X   E-E EXCHANGE COMBINE WITH DIAGNANAL VALUE
     N   NUCLEUS-NUCLEUS REPULSION ENERGY

 --------------
 MONOMER ENERGY
 --------------

 MONOMER    1

                   OWN BASIS           ALL BASIS

 T              -93.90976457        -93.90982480
 X              -11.31140779        -11.31191787
 N               27.84370257         27.84370257
 EC              -0.47440033         -0.47503242
 E              -77.85187013        -77.85307253

 MONOMER    2

                   OWN BASIS           ALL BASIS

 T              -93.90963837        -93.90969092
 X              -11.31140784        -11.31192103
 N               27.84357439         27.84357439
 EC              -0.47439944         -0.47503618
 E              -77.85187127        -77.85307375

 ------------------------------------------------------------
 SUPER MOLECULE ENERGY  USING NON-ANTISYMMETRIC WAVEFUNCTION
 (ELECTROSTATIC ENERGY: T N CHANGE)
 ------------------------------------------------------------

              FROM OWN BASIS      FROM ALL BASIS
 T             -234.67965822       -234.68500571
 X              -22.62281564        -22.62383890
 N              102.31471943        102.31471943
 E             -154.98775442       -154.99412518

 ----------------------------------------------------------------------
 SUPER MOLECULE ENERGY  USING ANTISYMMETRIC NONORTHONORMAL WAVEFUNCTION
 (EXCHANGE ENERGY: ONLY X CHANGES)
 ----------------------------------------------------------------------

              FROM OWN BASIS      FROM ALL BASIS
 T             -234.67965822       -234.68500571
 X              -22.95132655        -22.95168758
 N              102.31471943        102.31471943
 E             -155.31626534       -155.32197386

 -----------------------------------------------------------------------
 SUPER MOLECULE ENERGY  USING ANTISYMMETRIC AND ORTHONORMAL WAVEFUNCTION
 (REPULSION ENERGY: T X CHANGE)
 -----------------------------------------------------------------------

              FROM OWN BASIS      FROM ALL BASIS
 T+X           -256.93747680       -256.94254680
 N              102.31471943        102.31471943
 E             -154.62275737       -154.62782736

 ---------------------------------------------
 SUPER MOLECULE ENERGY  USING SCF WAVEFUNCTION
 (POLARIZATION ENERGY: T X CHANGE)
 ---------------------------------------------
 T+X           -257.22942857
 N              102.31471943
 EC              -0.98704655
 E             -155.90175569


                   *******************************
                   SUMMARY OF INTERACTION ENERGIES
                     XEDA IN XIAMEN UNIVERSITY    
                    - ZHEN TANG AND PEIFENG SU -  
                   *******************************


 -------------
 OWN BASIS SET                                       HARTREE          KCAL/MOL
 -------------
 ELECTROSTATIC ENERGY                  ES=         -0.232813           -146.09
 EXCHANGE ENERGY                       EX=         -0.328511           -206.14
 REPULSION ENERGY                     REP=          0.693508            435.18
 POLARIZATION ENERGY                  POL=         -0.291952           -183.20
 ELECTRON CORRELATION                CORR=         -0.038247            -24.00
 TOTAL INTERACTION ENERGY               E=         -0.198014           -124.26
  

 -------------
 ALL BASIS SET                                       HARTREE          KCAL/MOL
 -------------
 ELECTROSTATIC ENERGY                  ES=         -0.238048           -149.38
 EXCHANGE ENERGY                       EX=         -0.327849           -205.73
 REPULSION ENERGY                     REP=          0.694146            435.58
 POLARIZATION ENERGY                  POL=         -0.286882           -180.02
 ELECTRON CORRELATION                CORR=         -0.036978            -23.20
 TOTAL INTERACTION ENERGY               E=         -0.195609           -122.75
  

                     ***************************
                     END OF INTERACTION ANALYSIS
                     ***************************

              1301896  WORDS OF DYNAMIC MEMORY USED
 EXECUTION OF GAMESS TERMINATED NORMALLY 14:31:52 25-DEC-2023    
 DDI: 263640 bytes (0.3 MB / 0 MWords) used by master data server.

 ----------------------------------------
 CPU timing information for all processes
 ========================================
 0: 23.202 + 0.574 = 23.776
 1: 23.27 + 0.435 = 23.463
 2: 23.45 + 0.500 = 23.546
 3: 23.15 + 0.438 = 23.454
 4: 23.30 + 0.516 = 23.547
 5: 23.04 + 0.471 = 23.475
 6: 23.22 + 0.470 = 23.493
 7: 22.975 + 0.480 = 23.455
 8: 22.994 + 0.511 = 23.506
 9: 23.06 + 0.435 = 23.442
 10: 23.32 + 0.444 = 23.476
 11: 22.965 + 0.479 = 23.444
 12: 23.42 + 0.484 = 23.526
 13: 22.950 + 0.482 = 23.432
 14: 23.17 + 0.453 = 23.470
 15: 22.984 + 0.441 = 23.425
 ----------------------------------------
 ddikick.x: exited gracefully.
----- accounting info -----
Files used on the master node w016 were:
-rw-r--r-- 1 xacs0647 10000  2703863 Dec 25 14:31 /job_dir/27_1685751/27.dat
-rw-r--r-- 1 xacs0647 10000      243 Dec 25 14:31 /job_dir/27_1685751/27.err
-rw-r--r-- 1 xacs0647 10000      837 Dec 25 14:31 /job_dir/27_1685751/27.F05
-rw-r--r-- 1 xacs0647 10000 43923904 Dec 25 14:31 /job_dir/27_1685751/27.F08
-rw-r--r-- 1 xacs0647 10000 38163392 Dec 25 14:31 /job_dir/27_1685751/27.F08.001
-rw-r--r-- 1 xacs0647 10000 41403680 Dec 25 14:31 /job_dir/27_1685751/27.F08.002
-rw-r--r-- 1 xacs0647 10000 39063472 Dec 25 14:31 /job_dir/27_1685751/27.F08.003
-rw-r--r-- 1 xacs0647 10000 40863632 Dec 25 14:31 /job_dir/27_1685751/27.F08.004
-rw-r--r-- 1 xacs0647 10000 39603520 Dec 25 14:31 /job_dir/27_1685751/27.F08.005
-rw-r--r-- 1 xacs0647 10000 37983376 Dec 25 14:31 /job_dir/27_1685751/27.F08.006
-rw-r--r-- 1 xacs0647 10000 39603520 Dec 25 14:31 /job_dir/27_1685751/27.F08.007
-rw-r--r-- 1 xacs0647 10000 41583696 Dec 25 14:31 /job_dir/27_1685751/27.F08.008
-rw-r--r-- 1 xacs0647 10000 42843808 Dec 25 14:31 /job_dir/27_1685751/27.F08.009
-rw-r--r-- 1 xacs0647 10000 40863632 Dec 25 14:31 /job_dir/27_1685751/27.F08.010
-rw-r--r-- 1 xacs0647 10000 40323584 Dec 25 14:31 /job_dir/27_1685751/27.F08.011
-rw-r--r-- 1 xacs0647 10000 38883456 Dec 25 14:31 /job_dir/27_1685751/27.F08.012
-rw-r--r-- 1 xacs0647 10000 40863632 Dec 25 14:31 /job_dir/27_1685751/27.F08.013
-rw-r--r-- 1 xacs0647 10000 44283936 Dec 25 14:31 /job_dir/27_1685751/27.F08.014
-rw-r--r-- 1 xacs0647 10000 40143568 Dec 25 14:31 /job_dir/27_1685751/27.F08.015
-rw-r--r-- 1 xacs0647 10000  5758720 Dec 25 14:31 /job_dir/27_1685751/27.F10
-rw-r--r-- 1 xacs0647 10000      837 Dec 25 14:31 /job_dir/27_1685751/27.inp
-rw-r--r-- 1 xacs0647 10000  2403536 Dec 25 14:31 /job_dir/27_1685751/27.out
Mon Dec 25 14:31:55 CST 2023
0.093u 0.055s 0:27.36 0.5%	0+0k 0+32io 0pf+0w
