----- GAMESS execution script 'rungms' -----
This job is running on host w015
under operating system Linux at Mon Dec 25 14:31:57 CST 2023
Available scratch disk space (Kbyte units) at beginning of the job is
Filesystem              1K-blocks    Used Available Use% Mounted on
/dev/mapper/system-root 932514944 3251220 929263724   1% /
GAMESS temporary binary files will be written to /job_dir/3_1685753
GAMESS supplementary output files will be written to /job_dir/3_1685753
Copying input file ./3.inp to your run's scratch directory...
 
Assuming a single but multicore node.
 

 Distributed Data Interface kickoff program.
 Initiating 16 compute processes on 1 nodes to run the following command:
 /share/apps/xeda-apps/xeda-td/gamess.00.x 3 

          *******************************************************
          *                                                     *
          *          GAMESS VERSION = 30 SEP 2020 (R2)          *
          *                                                     *
          *              doi.org/10.1063/5.0005188              *
          *                                                     *
          **************** 64 BIT LINUX VERSION *****************

  GAMESS HAS BEEN MADE POSSIBLE WITH IMPORTANT CONTRIBUTIONS FROM
  THE FOLLOWING INDIVIDUALS (IN ALPHABETICAL ORDER):

     IVANA ADAMOVIC, CHRISTINE AIKENS, TOMOKO AKAMA,
     YURI ALEXEEV, YURIKO AOKI, POOJA ARORA, TOSHIO ASADA,
     ANDREY ASADCHEV, KIM K. BALDRIDGE, PRADIPTA BANDYOPADHYAY,
     MARIA BARYSZ, ROB BELL, JONATHAN BENTZ, COLLEEN BERTONI,
     JERRY A. BOATZ, BRETT BODE, KURT BRORSEN, KURT R. BRORSEN,
     LAIMUTIS BYTAUTAS, CALEB CARLIN, LAURA CARRINGTON,
     GALINA CHABAN, BENOIT CHAMPAGNE, WEI CHEN, MAHITO CHIBA,
     DAN CHIPMAN, CHEOL HO CHOI, TANNER CULPITT,
     DIPAYAN DATTA, PAUL DAY, ALBERT DEFUSCO,
     NUWAN DESILVA, J. EMILIANO DEUSTUA,
     TIM DUDLEY, MICHEL DUPUIS, STEVEN T. ELBERT,
     DMITRI FEDOROV, ALEX FINDLATER, GRAHAM FLETCHER,
     MARK FREITAG, CHRISTIAN FRIEDL, DAVID GARMER,
     IGOR S. GERASIMOV, KURT GLAESEMANN, MARK S. GORDON,
     JEFFREY GOUR, FENG LONG GU, EMILIE B. GUIDEZ,
     ANASTASIA GUNINA, SHARON HAMMES-SCHIFFER, MASATAKE HARUTA,
     KIMIHIKO HIRAO, YASUHIRO IKABATA, TZVETELIN IORDANOV,
     STEPHAN IRLE, KAZUYA ISHIMURA, JOE IVANIC, FRANK JENSEN,
     JAN H. JENSEN, VISVALDAS KAIRYS, MUNEAKI KAMIYA,
     MICHIO KATOUDA, NAOAKI KAWAKAMI, DAN KEMP, BERNARD KIRTMAN,
     KAZUO KITAURA, MARIUSZ KLOBUKOWSKI, MASATO KOBAYASHI,
     PRAKASHAN KORAMBATH, JACEK KORCHOWIEC, SHIRO KOSEKI,
     KAROL KOWALSKI, JIMMY KROMANN, STANISLAW KUCHARSKI,
     HENRY KURTZ, SAROM SOK LEANG, HUI LI, SHUHUA LI, WEI LI,
     JESSE LUTZ, ALEKSANDR O. LYKHIN, MARCIN MAKOWSKI,
     JOANI MATO, NIKITA MATSUNAGA, BENEDETTA MENNUCCI,
     GRANT MERRILL, NORIYUKI MINEZAWA, VLADIMIR MIRONOV,
     EISAKU MIYOSHI, JOHN A. MONTGOMERY JR., HIROTOSHI MORI,
     JONATHAN MULLIN, MONIKA MUSIAL, SHIGERU NAGASE,
     TAKESHI NAGATA, HIROMI NAKAI, TAKAHITO NAKAJIMA,
     YUYA NAKAJIMA, HARUYUKI NAKANO, HIROYA NAKATA, SEAN NEDD,
     HEATHER NETZLOFF, KIET A. NGUYEN, YOSHIO NISHIMOTO,
     BOSILJKA NJEGIC, RYAN OLSON, MIKE PAK, ROBERTO PEVERATI,
     BUU PHAM, PIOTR PIECUCH, ANNA POMOGAEVA, DAVID POOLE,
     SPENCER PRUITT, OLIVIER QUINET, LUKE ROSKOP,
     KLAUS RUEDENBERG, ANDREW SAND, TOSAPORN SATTASATHUCHANA,
     NOZOMI SAWADA, MICHAEL W. SCHMIDT, PATRICK E. SCHNEIDER,
     JUNJI SEINO, PRACHI SHARMA, JUN SHEN, JIM SHOEMAKER,
     YINAN SHU, DEJUN SI, JONATHAN SKONE, LYUDMILA SLIPCHENKO,
     TONY SMITH, JIE SONG, MARK SPACKMAN, CASPER STEINMANN,
     WALT STEVENS, PEIFENG SU, SHUJUN SU, CHET SWALINA,
     TETSUYA TAKETSUGU, ZHEN TAO, NANDUN THELLAMUREGE
     SEIKEN TOKURA, JACOPO TOMASI, TSUGUKI TOUMA, TAKAO TSUNEDA,
     HIROAKI UMEDA, JORGE LUIS GALVEZ VALLEJO, YALI WANG,
     SIMON WEBB, AARON WEST, THERESA L. WINDUS, MARTA WLOCH,
     PENG XU, KIYOSHI YAGI, SUSUMU YANAGISAWA, YANG YANG,
     SOOHAENG YOO, TAKESHI YOSHIKAWA, FEDERICO ZAHARIEV,
     TOBY ZENG

  WHO ARE SUPPORTED BY THEIR INSTITUTION/UNIVERSITY/COMPANY/GROUP
  (IN ALPHABETICAL ORDER):

     EP ANALYTICS, FACULTES UNIVERSITAIRES NOTRE-DAME DE LA PAIX,
     INSTITUTE FOR MOLECULAR SCIENCE, IOWA STATE UNIVERSITY,
     JACKSON STATE UNIVERSITY, JOHANNES KEPLER UNIVERSITY LINZ,
     KYUSHU UNIVERSITY, MICHIGAN STATE UNIVERSITY,
     MIE UNIVERSITY, MOSCOW STATE UNIVERSITY,
     N. COPERNICUS UNIVERSITY, NAGOYA UNIVERSITY,
     NANJING UNIVERSITY, NAT. INST. OF ADVANCED INDUSTRIAL
     SCIENCE AND TECHNOLOGY, NATIONAL INST. OF STANDARDS AND
     TECHNOLOGY, NESMEYANOV INSTITUTE OF ORGANOELEMENT COMPOUNDS
     OF RUSSIAN ACADEMY OF SCIENCES, OSAKA PREFECTURE UNIVERSITY,
     PENNSYLVANIA STATE UNIVERSITY, TOKYO INSTITUTE OF TECHNOLOGY,
     UNIVERSITY OF AARHUS, UNIVERSITY OF ALBERTA,
     UNIVERSITY OF CALIFORNIA AT SANTA BARBARA,
     UNIVERSITY OF COPENHAGEN, UNIVERSITY OF IOWA,
     UNIVERSITY OF MEMPHIS, UNIVERSITY OF MINNESOTA,
     UNIVERSITY OF NEBRASKA, UNIVERSITY OF NEW ENGLAND,
     UNIVERSITY OF NOTRE DAME, UNIVERSITY OF PISA,
     UNIVERSITY OF SILESIA, UNIVERSITY OF TOKYO,
     UNIVERSITY OF ZURICH, WASEDA UNIVERSITY, YALE UNIVERSITY

  GAMESS SOFTWARE MANAGEMENT TEAM FOR THIS RELEASE:
     MARK S. GORDON (TEAM LEAD),
     BRETT BODE (SENIOR ADVISOR),
     GIUSEPPE BARCA,
     COLLEEN BERTONI,
     KRISTOPHER KEIPERT (ADVISOR),
     SAROM S. LEANG (DEVELOPMENT LEAD),
     BUU PHAM,
     JORGE LUIS GALVEZ VALLEJO (WEBSITE ADMINISTRATOR),
     PENG XU


 PARALLEL VERSION RUNNING ON       16 PROCESSORS IN        1 NODES.

 EXECUTION OF GAMESS BEGUN 14:31:57 25-DEC-2023    

            ECHO OF THE FIRST FEW INPUT CARDS -
 INPUT CARD> $CONTRL SCFTYP=UHF RUNTYP=EDA dfttyp=B3LYP ispher=1 icharg=0 mult=1 $END       
 INPUT CARD> $SYSTEM  mwords=150 memddi=150 $END                                            
 INPUT CARD> $BASIS gbasis=accd $END                                                        
 INPUT CARD> $LMOEDA MATOM(1)=5 5 MCHARG(1)=0 0 MMULT(1)=2 -2 edatyp=gks $end               
 INPUT CARD> $scf DIIS=.TRUE. ETHRSH=2.0 SWDIIS=0.005 $end                                  
 INPUT CARD> $data                                                                          
 INPUT CARD> EDA calculation with XEDA 1.0                                                  
 INPUT CARD> c1                                                                             
 INPUT CARD>C   6   -0.0972232799    0.9274942884   -1.3485493676                           
 INPUT CARD>C   6   -0.0972232799    0.9274942884    0.0094678526                           
 INPUT CARD>H   1   -0.0827557440    1.8904441815    0.5342070172                           
 INPUT CARD>H   1   -0.1409507652    0.0043431674   -1.9337548992                           
 INPUT CARD>H   1   -0.0720830051    1.8578711160   -1.9201713948                           
 INPUT CARD>C   6   -0.0972232799   -0.2811162498    0.8839505267                           
 INPUT CARD>C   6    0.2790931534   -1.5320849808    0.5129046156                           
 INPUT CARD>H   1    0.6673995219   -1.7544271701   -0.4852789820                           
 INPUT CARD>H   1    0.2274042611   -2.3740354359    1.2067537579                           
 INPUT CARD>H   1   -0.4492658207   -0.1217506326    1.9103438195                           
 INPUT CARD> $end                                                                           
  150000000 WORDS OF MEMORY AVAILABLE

     BASIS OPTIONS
     -------------
     GBASIS=ACCD         IGAUSS=       0      POLAR=NONE    
     NDFUNC=       0     NFFUNC=       0     DIFFSP=       F
     NPFUNC=       0      DIFFS=       F     BASNAM=        


     RUN TITLE
     ---------
  EDA calculation with XEDA 1.0                                                  

 THE POINT GROUP OF THE MOLECULE IS C1      
 THE ORDER OF THE PRINCIPAL AXIS IS     0

 ATOM      ATOMIC                      COORDINATES (BOHR)
           CHARGE         X                   Y                   Z
 C           6.0    -0.1837253586        1.7527100603       -2.5483887857
 C           6.0    -0.1837253586        1.7527100603        0.0178916471
 H           1.0    -0.1563856801        3.5724214981        1.0095048832
 H           1.0    -0.2663583240        0.0082073963       -3.6542668869
 H           1.0    -0.1362171280        3.5108673297       -3.6285977856
 C           6.0    -0.1837253586       -0.5312326828        1.6704242822
 C           6.0     0.5274095850       -2.8952208036        0.9692491813
 H           1.0     1.2612022207       -3.3153866169       -0.9170443036
 H           1.0     0.4297317419       -4.4862764590        2.2804339371
 H           1.0    -0.8489892968       -0.2300753344        3.6100263612

          INTERNUCLEAR DISTANCES (ANGS.)
          ------------------------------

                1 C          2 C          3 H          4 H          5 H     

   1 C       0.0000000    1.3580172 *  2.1147703 *  1.0938856 *  1.0922384 *
   2 C       1.3580172 *  0.0000000    1.0967374 *  2.1517980 *  2.1423680 *
   3 H       2.1147703 *  1.0967374 *  0.0000000    3.1067024    2.4546178 *
   4 H       1.0938856 *  2.1517980 *  3.1067024    0.0000000    1.8548566 *
   5 H       1.0922384 *  2.1423680 *  2.4546178 *  1.8548566 *  0.0000000  
   6 C       2.5386601 *  1.4917974 *  2.1995919 *  2.8324659 *  3.5268965  
   7 C       3.1074355    2.5386203 *  3.4416703    2.9194505 *  4.1874797  
   8 H       2.9193469 *  2.8323356 *  3.8583898    2.4175992 *  3.9565704  
   9 H       4.1874880    3.5268931    4.3283143    3.9566608    5.2703308  
  10 H       3.4416905    2.1995859 *  2.4651592 *  3.8585040    4.3282809  

                6 C          7 C          8 H          9 H         10 H     

   1 C       2.5386601 *  3.1074355    2.9193469 *  4.1874880    3.4416905  
   2 C       1.4917974 *  2.5386203 *  2.8323356 *  3.5268931    2.1995859 *
   3 H       2.1995919 *  3.4416703    3.8583898    4.3283143    2.4651592 *
   4 H       2.8324659 *  2.9194505 *  2.4175992 *  3.9566608    3.8585040  
   5 H       3.5268965    4.1874797    3.9565704    5.2703308    4.3282809  
   6 C       0.0000000    1.3580176 *  2.1517627 *  2.1424042 *  1.0967290 *
   7 C       1.3580176 *  0.0000000    1.0938868 *  1.0922358 *  2.1148017 *
   8 H       2.1517627 *  1.0938868 *  0.0000000    1.8548544 *  3.1066997  
   9 H       2.1424042 *  1.0922358 *  1.8548544 *  0.0000000    2.4547318 *
  10 H       1.0967290 *  2.1148017 *  3.1066997    2.4547318 *  0.0000000  

  * ... LESS THAN  3.000


     ATOMIC BASIS SET
     ----------------
 THE CONTRACTED PRIMITIVE FUNCTIONS HAVE BEEN UNNORMALIZED
 THE CONTRACTED BASIS FUNCTIONS ARE NOW NORMALIZED TO UNITY

  SHELL TYPE  PRIMITIVE        EXPONENT          CONTRACTION COEFFICIENT(S)

 C         

      1   S       1          6665.0000000    0.000691583963
      1   S       2          1000.0000000    0.005325796153
      1   S       3           228.0000000    0.027060721042
      1   S       4            64.7100000    0.101656846141
      1   S       5            21.0600000    0.274574823617
      1   S       6             7.4950000    0.448294318924
      1   S       7             2.7970000    0.284902610715
      1   S       8             0.5215000    0.015194859206

      2   S       9          6665.0000000   -0.000293269653
      2   S      10          1000.0000000   -0.002318035474
      2   S      11           228.0000000   -0.011499786039
      2   S      12            64.7100000   -0.046826727010
      2   S      13            21.0600000   -0.128466168750
      2   S      14             7.4950000   -0.301266272463
      2   S      15             2.7970000   -0.255630702330
      2   S      16             0.5215000    1.093793361012

      3   S      17             0.1596000    1.000000000000

      4   P      18             9.4390000    0.056979251590
      4   P      19             2.0020000    0.313207211501
      4   P      20             0.5456000    0.760376741738

      5   P      21             0.1517000    1.000000000000

      6   D      22             0.5500000    1.000000000000

      7   S      23             0.0469000    1.000000000000

      8   P      24             0.0404100    1.000000000000

      9   D      25             0.1510000    1.000000000000

 C         

     10   S      26          6665.0000000    0.000691583963
     10   S      27          1000.0000000    0.005325796153
     10   S      28           228.0000000    0.027060721042
     10   S      29            64.7100000    0.101656846141
     10   S      30            21.0600000    0.274574823617
     10   S      31             7.4950000    0.448294318924
     10   S      32             2.7970000    0.284902610715
     10   S      33             0.5215000    0.015194859206

     11   S      34          6665.0000000   -0.000293269653
     11   S      35          1000.0000000   -0.002318035474
     11   S      36           228.0000000   -0.011499786039
     11   S      37            64.7100000   -0.046826727010
     11   S      38            21.0600000   -0.128466168750
     11   S      39             7.4950000   -0.301266272463
     11   S      40             2.7970000   -0.255630702330
     11   S      41             0.5215000    1.093793361012

     12   S      42             0.1596000    1.000000000000

     13   P      43             9.4390000    0.056979251590
     13   P      44             2.0020000    0.313207211501
     13   P      45             0.5456000    0.760376741738

     14   P      46             0.1517000    1.000000000000

     15   D      47             0.5500000    1.000000000000

     16   S      48             0.0469000    1.000000000000

     17   P      49             0.0404100    1.000000000000

     18   D      50             0.1510000    1.000000000000

 H         

     19   S      51            13.0100000    0.033498726390
     19   S      52             1.9620000    0.234800801174
     19   S      53             0.4446000    0.813682957883

     20   S      54             0.1220000    1.000000000000

     21   P      55             0.7270000    1.000000000000

     22   S      56             0.0297400    1.000000000000

     23   P      57             0.1410000    1.000000000000

 H         

     24   S      58            13.0100000    0.033498726390
     24   S      59             1.9620000    0.234800801174
     24   S      60             0.4446000    0.813682957883

     25   S      61             0.1220000    1.000000000000

     26   P      62             0.7270000    1.000000000000

     27   S      63             0.0297400    1.000000000000

     28   P      64             0.1410000    1.000000000000

 H         

     29   S      65            13.0100000    0.033498726390
     29   S      66             1.9620000    0.234800801174
     29   S      67             0.4446000    0.813682957883

     30   S      68             0.1220000    1.000000000000

     31   P      69             0.7270000    1.000000000000

     32   S      70             0.0297400    1.000000000000

     33   P      71             0.1410000    1.000000000000

 C         

     34   S      72          6665.0000000    0.000691583963
     34   S      73          1000.0000000    0.005325796153
     34   S      74           228.0000000    0.027060721042
     34   S      75            64.7100000    0.101656846141
     34   S      76            21.0600000    0.274574823617
     34   S      77             7.4950000    0.448294318924
     34   S      78             2.7970000    0.284902610715
     34   S      79             0.5215000    0.015194859206

     35   S      80          6665.0000000   -0.000293269653
     35   S      81          1000.0000000   -0.002318035474
     35   S      82           228.0000000   -0.011499786039
     35   S      83            64.7100000   -0.046826727010
     35   S      84            21.0600000   -0.128466168750
     35   S      85             7.4950000   -0.301266272463
     35   S      86             2.7970000   -0.255630702330
     35   S      87             0.5215000    1.093793361012

     36   S      88             0.1596000    1.000000000000

     37   P      89             9.4390000    0.056979251590
     37   P      90             2.0020000    0.313207211501
     37   P      91             0.5456000    0.760376741738

     38   P      92             0.1517000    1.000000000000

     39   D      93             0.5500000    1.000000000000

     40   S      94             0.0469000    1.000000000000

     41   P      95             0.0404100    1.000000000000

     42   D      96             0.1510000    1.000000000000

 C         

     43   S      97          6665.0000000    0.000691583963
     43   S      98          1000.0000000    0.005325796153
     43   S      99           228.0000000    0.027060721042
     43   S     100            64.7100000    0.101656846141
     43   S     101            21.0600000    0.274574823617
     43   S     102             7.4950000    0.448294318924
     43   S     103             2.7970000    0.284902610715
     43   S     104             0.5215000    0.015194859206

     44   S     105          6665.0000000   -0.000293269653
     44   S     106          1000.0000000   -0.002318035474
     44   S     107           228.0000000   -0.011499786039
     44   S     108            64.7100000   -0.046826727010
     44   S     109            21.0600000   -0.128466168750
     44   S     110             7.4950000   -0.301266272463
     44   S     111             2.7970000   -0.255630702330
     44   S     112             0.5215000    1.093793361012

     45   S     113             0.1596000    1.000000000000

     46   P     114             9.4390000    0.056979251590
     46   P     115             2.0020000    0.313207211501
     46   P     116             0.5456000    0.760376741738

     47   P     117             0.1517000    1.000000000000

     48   D     118             0.5500000    1.000000000000

     49   S     119             0.0469000    1.000000000000

     50   P     120             0.0404100    1.000000000000

     51   D     121             0.1510000    1.000000000000

 H         

     52   S     122            13.0100000    0.033498726390
     52   S     123             1.9620000    0.234800801174
     52   S     124             0.4446000    0.813682957883

     53   S     125             0.1220000    1.000000000000

     54   P     126             0.7270000    1.000000000000

     55   S     127             0.0297400    1.000000000000

     56   P     128             0.1410000    1.000000000000

 H         

     57   S     129            13.0100000    0.033498726390
     57   S     130             1.9620000    0.234800801174
     57   S     131             0.4446000    0.813682957883

     58   S     132             0.1220000    1.000000000000

     59   P     133             0.7270000    1.000000000000

     60   S     134             0.0297400    1.000000000000

     61   P     135             0.1410000    1.000000000000

 H         

     62   S     136            13.0100000    0.033498726390
     62   S     137             1.9620000    0.234800801174
     62   S     138             0.4446000    0.813682957883

     63   S     139             0.1220000    1.000000000000

     64   P     140             0.7270000    1.000000000000

     65   S     141             0.0297400    1.000000000000

     66   P     142             0.1410000    1.000000000000

 TOTAL NUMBER OF BASIS SET SHELLS             =   66
 NUMBER OF CARTESIAN GAUSSIAN BASIS FUNCTIONS =  154
 NOTE: THIS RUN WILL RESTRICT THE MO VARIATION SPACE TO SPHERICAL HARMONICS.
 THE NUMBER OF ORBITALS KEPT IN THE VARIATIONAL SPACE WILL BE PRINTED LATER.
 NUMBER OF ELECTRONS                          =   30
 CHARGE OF MOLECULE                           =    0
 SPIN MULTIPLICITY                            =    1
 NUMBER OF OCCUPIED ORBITALS (ALPHA)          =   15
 NUMBER OF OCCUPIED ORBITALS (BETA )          =   15
 TOTAL NUMBER OF ATOMS                        =   10
 THE NUCLEAR REPULSION ENERGY IS      103.4208085433

 SELECTED MURRAY-HANDY-LAMING RADIAL GRID

 LEGACY BECKE'S FUZZY CELL METHOD

 SELECTED ORIGINAL BECKE'S PARTITION FUNCTION

     LEBEDEV GRID-BASED DFT OPTIONS
     ------------------------------
     DFTTYP=B3LYP   
     NRAD  =      96     NLEB  =     302
     NRAD0 =      24     NLEB0 =     110
     SWOFF =    5.00E-03 (PURE SCF -> DFT)
     SWITCH=    3.00E-04 (COARSE -> TIGHT GRID)
     THRESH=    0.00E+00 GTHRE=    1.00E+00

 GRIMME'S EMPIRICAL DISPERSION CORRECTION= F

     $CONTRL OPTIONS
     ---------------
 SCFTYP=UHF          RUNTYP=LMOEDA       EXETYP=RUN     
 MPLEVL=       0     CITYP =NONE         CCTYP =NONE         VBTYP =NONE    
 DFTTYP=B3LYP        TDDFT =NONE    
 MULT  =       1     ICHARG=       0     NZVAR =       0     COORD =UNIQUE  
 PP    =NONE         RELWFN=NONE         LOCAL =NONE         NUMGRD=       F
 ISPHER=       1     NOSYM =       0     MAXIT =      30     UNITS =ANGS    
 PLTORB=       F     MOLPLT=       F     AIMPAC=       F     FRIEND=        
 NPRINT=       7     IREST =       0     GEOM  =INPUT   
 NORMF =       0     NORMP =       0     ITOL  =      20     ICUT  =       9
 INTTYP=BEST         GRDTYP=BEST         QMTTOL= 1.0E-06

     $SYSTEM OPTIONS
     ---------------
  REPLICATED MEMORY=   150000000 WORDS (ON EVERY NODE).
 DISTRIBUTED MEMDDI=         150 MILLION WORDS IN AGGREGATE,
 MEMDDI DISTRIBUTED OVER  16 PROCESSORS IS     9375000 WORDS/PROCESSOR.
 TOTAL MEMORY REQUESTED ON EACH PROCESSOR=   159375000 WORDS.
 TIMLIM=      525600.00 MINUTES, OR     365.0 DAYS.
 PARALL= T  BALTYP=  DLB     KDIAG=    0  COREFL= F
 MXSEQ2=     300 MXSEQ3=     150  mem10=         0  mem22=         0

 Using Gaussians for PCM contribution to MEP, params: 0.10000E+01 0.10000E-07

          ----------------
          PROPERTIES INPUT
          ----------------

     MOMENTS            FIELD           POTENTIAL          DENSITY
 IEMOM =       1   IEFLD =       0   IEPOT =       0   IEDEN =       0
 WHERE =COMASS     WHERE =NUCLEI     WHERE =NUCLEI     WHERE =NUCLEI  
 OUTPUT=BOTH       OUTPUT=BOTH       OUTPUT=BOTH       OUTPUT=BOTH    
 IEMINT=       0   IEFINT=       0                     IEDINT=       0
                                                       MORB  =       0
          EXTRAPOLATION IN EFFECT
          DIIS IN EFFECT
          DIIS or SOSCF will be reset if energy rises
 ORBITAL PRINTING OPTION: NPREO=     1   154     2     1

     -------------------------------
     INTEGRAL TRANSFORMATION OPTIONS
     -------------------------------
     NWORD  =            0
     CUTOFF = 1.0E-09     MPTRAN =       0
     DIRTRF =       F     AOINTS =DUP     

          -----------------------------
          LOCALIZATION INPUT PARAMETERS
          -----------------------------
           LOCAL=RUEDNBRG      NOUTA=       0
          PRTLOC=       F      NOUTB=       0
          MAXLOC=     250     CVGLOC=1.00E-06
           FCORE=       F     SYMLOC=       F
          MOIDON=       F     EDCOMP=       F
          DIPDCM=       F      NPROT=       0
          QADDCM=       F     DEPRNT=       F
          POLNUM=       F     ORIENT=       F
          POLDYN=       F      VMTOL=1.50E-01
          NPRDTL=       2     IBOYAL=       1

          ----------------------
          INTEGRAL INPUT OPTIONS
          ----------------------
 NOPK  =       1 NORDER=       0 SCHWRZ=       T

     ------------------------------------------
     THE POINT GROUP IS C1 , NAXIS= 0, ORDER= 1
     ------------------------------------------

 -- VARIATIONAL SPACE WILL BE RESTRICTED TO PURE SPHERICAL HARMONICS ONLY --
 AFTER EXCLUDING CONTAMINANT COMBINATIONS FROM THE CARTESIAN GAUSSIAN BASIS
 SET, THE NUMBER OF SPHERICAL HARMONICS KEPT IN THE VARIATION SPACE IS  146

     DIMENSIONS OF THE SYMMETRY SUBSPACES ARE
 A   =  146

 ..... DONE SETTING UP THE RUN .....
 CPU     0: STEP CPU TIME=     0.03 TOTAL CPU TIME=          0.0 (      0.0 MIN)
 TOTAL WALL CLOCK TIME=          0.0 SECONDS, CPU UTILIZATION IS    83.06%

          --------------
          GKSEDA OPTIONS
          --------------
          NMOL  =       2          EDATYP=GKS     
          SUPBAS=       T          RDVECM=       F          ITRTN =       T

 *******************
 GKSEDA IS BEGINNING
 *******************

 NMOL =  2

 MONOMER     ATOM   CHARGE ELECTRON MULTIPLE
 -------------------------------------------
       1        5        0       15        2
       2        5        0       15       -2
 -------------------------------------------

 SAVING MOL INFO REQUIRES    598670 WORDS OF MEMORY.

          ********************
          1 ELECTRON INTEGRALS
          ********************
 ...... END OF ONE-ELECTRON INTEGRALS ......
 CPU     0: STEP CPU TIME=     0.01 TOTAL CPU TIME=          0.0 (      0.0 MIN)
 TOTAL WALL CLOCK TIME=          0.0 SECONDS, CPU UTILIZATION IS    84.77%

          -------------
          GUESS OPTIONS
          -------------
          GUESS =HUCKEL            NORB  =       0          NORDER=       0
          MIX   =       F          PRTMO =       F          PUNMO =       F
          TOLZ  = 1.0E-08          TOLE  = 1.0E-05
          SYMDEN=       F          PURIFY=       F

 INITIAL GUESS ORBITALS GENERATED BY HUCKEL   ROUTINE.
 HUCKEL GUESS REQUIRES    180842 WORDS.

 STATISTICS FOR GENERATION OF SYMMETRY ORBITAL -Q- MATRIX
 NUMBER OF CARTESIAN ATOMIC ORBITALS=        154
 NUMBER OF SPHERICAL CONTAMINANTS DROPPED=     8
 NUMBER OF LINEARLY DEPENDENT MOS DROPPED=     0
 TOTAL NUMBER OF MOS IN VARIATION SPACE=     146

 SYMMETRIES FOR INITIAL GUESS ORBITALS FOLLOW.  ALPHA SET(S).
    15 ORBITALS ARE OCCUPIED (    4 CORE ORBITALS).
     5=A        6=A        7=A        8=A        9=A       10=A       11=A   
    12=A       13=A       14=A       15=A       16=A       17=A       18=A   
    19=A       20=A       21=A       22=A       23=A       24=A       25=A   

 SYMMETRIES FOR INITIAL GUESS ORBITALS FOLLOW.   BETA SET(S).
    15 ORBITALS ARE OCCUPIED (    4 CORE ORBITALS).
     5=A        6=A        7=A        8=A        9=A       10=A       11=A   
    12=A       13=A       14=A       15=A       16=A       17=A       18=A   
    19=A       20=A       21=A       22=A       23=A       24=A       25=A   
 ...... END OF INITIAL ORBITAL SELECTION ......
 CPU     0: STEP CPU TIME=     0.01 TOTAL CPU TIME=          0.1 (      0.0 MIN)
 TOTAL WALL CLOCK TIME=          0.1 SECONDS, CPU UTILIZATION IS    88.45%

          -------------------------
          MONOMER  1 WITH OWN BASIS
          -------------------------

     ------------------------------------------
     THE POINT GROUP IS C1 , NAXIS= 0, ORDER= 1
     ------------------------------------------

 -- VARIATIONAL SPACE WILL BE RESTRICTED TO PURE SPHERICAL HARMONICS ONLY --
 AFTER EXCLUDING CONTAMINANT COMBINATIONS FROM THE CARTESIAN GAUSSIAN BASIS
 SET, THE NUMBER OF SPHERICAL HARMONICS KEPT IN THE VARIATION SPACE IS   73

     DIMENSIONS OF THE SYMMETRY SUBSPACES ARE
 A   =   73

          ********************
          1 ELECTRON INTEGRALS
          ********************
 ...... END OF ONE-ELECTRON INTEGRALS ......
 CPU     0: STEP CPU TIME=     0.01 TOTAL CPU TIME=          0.1 (      0.0 MIN)
 TOTAL WALL CLOCK TIME=          0.1 SECONDS, CPU UTILIZATION IS    89.18%

          -------------
          GUESS OPTIONS
          -------------
          GUESS =HUCKEL            NORB  =       0          NORDER=       0
          MIX   =       F          PRTMO =       F          PUNMO =       F
          TOLZ  = 1.0E-08          TOLE  = 1.0E-05
          SYMDEN=       F          PURIFY=       F

 INITIAL GUESS ORBITALS GENERATED BY HUCKEL   ROUTINE.
 HUCKEL GUESS REQUIRES     47410 WORDS.

 STATISTICS FOR GENERATION OF SYMMETRY ORBITAL -Q- MATRIX
 NUMBER OF CARTESIAN ATOMIC ORBITALS=         77
 NUMBER OF SPHERICAL CONTAMINANTS DROPPED=     4
 NUMBER OF LINEARLY DEPENDENT MOS DROPPED=     0
 TOTAL NUMBER OF MOS IN VARIATION SPACE=      73

 SYMMETRIES FOR INITIAL GUESS ORBITALS FOLLOW.  ALPHA SET(S).
     8 ORBITALS ARE OCCUPIED (    2 CORE ORBITALS).
     3=A        4=A        5=A        6=A        7=A        8=A        9=A   
    10=A       11=A       12=A       13=A       14=A       15=A       16=A   
    17=A       18=A   

 SYMMETRIES FOR INITIAL GUESS ORBITALS FOLLOW.   BETA SET(S).
     7 ORBITALS ARE OCCUPIED (    2 CORE ORBITALS).
     3=A        4=A        5=A        6=A        7=A        8=A        9=A   
    10=A       11=A       12=A       13=A       14=A       15=A       16=A   
    17=A   
 ...... END OF INITIAL ORBITAL SELECTION ......
 CPU     0: STEP CPU TIME=     0.00 TOTAL CPU TIME=          0.1 (      0.0 MIN)
 TOTAL WALL CLOCK TIME=          0.1 SECONDS, CPU UTILIZATION IS    89.63%

                    ----------------------
                    AO INTEGRAL TECHNOLOGY
                    ----------------------
     S,P,L SHELL ROTATED AXIS INTEGRALS, REPROGRAMMED BY
        KAZUYA ISHIMURA (IMS) AND JOSE SIERRA (SYNSTAR).
     S,P,D,L SHELL ROTATED AXIS INTEGRALS PROGRAMMED BY
        KAZUYA ISHIMURA (INSTITUTE FOR MOLECULAR SCIENCE).
     S,P,D,F,G SHELL TO TOTAL QUARTET ANGULAR MOMENTUM SUM 5,
        ERIC PROGRAM BY GRAHAM FLETCHER (ELORET AND NASA ADVANCED
        SUPERCOMPUTING DIVISION, AMES RESEARCH CENTER).
     S,P,D,F,G,L SHELL GENERAL RYS QUADRATURE PROGRAMMED BY
        MICHEL DUPUIS (PACIFIC NORTHWEST NATIONAL LABORATORY).

          --------------------
          2 ELECTRON INTEGRALS
          --------------------

 THE -PK- OPTION IS OFF, THE INTEGRALS ARE NOT IN SUPERMATRIX FORM.
 STORING   15000 INTEGRALS/RECORD ON DISK, USING 12 BYTES/INTEGRAL.
 TWO ELECTRON INTEGRAL EVALUATION REQUIRES   90957 WORDS OF MEMORY.
 SCHWARZ INEQUALITY OVERHEAD:      3003 INTEGRALS, T=        0.00
 II,JST,KST,LST =  1  1  1  1 NREC =         1 INTLOC =    1
 II,JST,KST,LST =  2  1  1  1 NREC =         1 INTLOC =    1
 II,JST,KST,LST =  3  1  1  1 NREC =         1 INTLOC =    1
 II,JST,KST,LST =  4  1  1  1 NREC =         1 INTLOC =    1
 II,JST,KST,LST =  5  1  1  1 NREC =         1 INTLOC =    1
 II,JST,KST,LST =  6  1  1  1 NREC =         1 INTLOC =    1
 II,JST,KST,LST =  7  1  1  1 NREC =         1 INTLOC =    4
 II,JST,KST,LST =  8  1  1  1 NREC =         1 INTLOC =   49
 II,JST,KST,LST =  9  1  1  1 NREC =         1 INTLOC =  589
 II,JST,KST,LST = 10  1  1  1 NREC =         1 INTLOC =  589
 II,JST,KST,LST = 11  1  1  1 NREC =         1 INTLOC =  589
 II,JST,KST,LST = 12  1  1  1 NREC =         1 INTLOC = 1015
 II,JST,KST,LST = 13  1  1  1 NREC =         1 INTLOC = 1337
 II,JST,KST,LST = 14  1  1  1 NREC =         1 INTLOC = 4879
 II,JST,KST,LST = 15  1  1  1 NREC =         1 INTLOC = 4879
 II,JST,KST,LST = 16  1  1  1 NREC =         1 INTLOC = 6967
 II,JST,KST,LST = 17  1  1  1 NREC =         1 INTLOC = 8103
 II,JST,KST,LST = 18  1  1  1 NREC =         1 INTLOC =11862
 II,JST,KST,LST = 19  1  1  1 NREC =         3 INTLOC =  750
 II,JST,KST,LST = 20  1  1  1 NREC =         3 INTLOC =  750
 II,JST,KST,LST = 21  1  1  1 NREC =         3 INTLOC =  750
 II,JST,KST,LST = 22  1  1  1 NREC =         4 INTLOC = 7151
 II,JST,KST,LST = 23  1  1  1 NREC =         4 INTLOC = 7151
 II,JST,KST,LST = 24  1  1  1 NREC =         6 INTLOC = 4853
 II,JST,KST,LST = 25  1  1  1 NREC =         6 INTLOC = 4853
 II,JST,KST,LST = 26  1  1  1 NREC =         7 INTLOC = 5137
 II,JST,KST,LST = 27  1  1  1 NREC =         9 INTLOC = 7514
 II,JST,KST,LST = 28  1  1  1 NREC =         9 INTLOC = 7514
 II,JST,KST,LST = 29  1  1  1 NREC =        10 INTLOC = 4538
 II,JST,KST,LST = 30  1  1  1 NREC =        11 INTLOC = 1230
 II,JST,KST,LST = 31  1  1  1 NREC =        11 INTLOC = 9408
 II,JST,KST,LST = 32  1  1  1 NREC =        13 INTLOC = 9869
 II,JST,KST,LST = 33  1  1  1 NREC =        14 INTLOC = 9413
 SCHWARZ INEQUALITY TEST SKIPPED           0 INTEGRAL BLOCKS.
 TOTAL NUMBER OF NONZERO TWO-ELECTRON INTEGRALS =             3901611
        269 INTEGRAL RECORDS WERE STORED ON DISK FILE  8.
  ...... END OF TWO-ELECTRON INTEGRALS .....
 CPU     0: STEP CPU TIME=     0.03 TOTAL CPU TIME=          0.1 (      0.0 MIN)
 TOTAL WALL CLOCK TIME=          0.1 SECONDS, CPU UTILIZATION IS    90.16%

          ---------------------------
              U-B3LYP SCF CALCULATION
          ---------------------------

     NUCLEAR ENERGY =        27.8627415745
     MAXIT = 30     NPUNCH=  2     MULT=  2
     EXTRAP=T  DAMP=F  SHIFT=F  RSTRCT=F  DIIS=T  SOSCF=T
         DENSITY MATRIX CONVERGENCE THRESHOLD=  1.00E-05
     COARSE -> FINE DFT GRID SWITCH THRESHOLD=  3.00E-04 (SWITCH IN $DFT)
                   HF -> DFT SWITCH THRESHOLD=  5.00E-03 (SWOFF IN $DFT)
     SOSCF WILL OPTIMIZE     520 ALPHA AND     462 BETA ROTATION ANGLES.
     SOGTOL= 2.500E-01
     MEMORY REQUIRED FOR UHF/ROHF ITERS=    298732 WORDS.

     EXCHANGE FUNCTIONAL   =B88&HFX   
     CORRELATION FUNCTIONAL=LYP88&VWN5
     DFT THRESHOLD         =.690E-08
     GRID CHANGE THRESHOLD =.300E-03
 FOR AN EULER-MACLAURIN QUADRATURE USING  96 RADIAL POINTS:
 SMALLEST GAUSSIAN PRIMITIVE EXPONENT=        0.0297400000 OF TYPE -S-
 ON ATOM NUMBER   3 HAS RADIAL NORMALIZATION=  1.000000
  LARGEST GAUSSIAN PRIMITIVE EXPONENT=     6665.0000000000 OF TYPE -S-
 ON ATOM NUMBER   1 HAS RADIAL NORMALIZATION=  1.000000
 DFT IS SWITCHED OFF, PERFORMING PURE SCF UNTIL SWOFF THRESHOLD IS REACHED.

 ITER EX      TOTAL ENERGY        E CHANGE  DENSITY CHANGE    DIIS ERROR
          * * *   INITIATING DIIS PROCEDURE   * * *
   1  0      -77.1738746175   -77.1738746175   0.500961089   0.355183755
   2  1      -77.3680394840    -0.1941648664   0.153955949   0.054366185
   3  2      -77.3840786291    -0.0160391451   0.031297985   0.026161742
   4  3      -77.3885152330    -0.0044366040   0.022179824   0.011327497
   5  4      -77.3899111296    -0.0013958966   0.012989903   0.008629779
   6  5      -77.3905694894    -0.0006583598   0.024377922   0.008635225
   7  6      -77.3916456138    -0.0010761244   0.063219843   0.008400194
   8  7      -77.3940200630    -0.0023744491   0.116719147   0.006611898
   9  8      -77.3956277861    -0.0016077231   0.073802096   0.002322946
  10  9      -77.3951555526     0.0004722335   0.044861090   0.004360477
  11 10      -77.3957213710    -0.0005658184   0.008355800   0.000813960
  12 11      -77.3957395512    -0.0000181802   0.000238740   0.000084902
 CONVERGED TO SWOFF, SO DFT CALCULATION IS NOW SWITCHED ON.
          * * *   INITIATING DIIS PROCEDURE   * * *
  13 12      -77.8294366410    -0.4336970898   0.396962041   0.061991816
  14 13      -77.8460712615    -0.0166346205   0.062829260   0.016801294
  15 14      -77.8487652341    -0.0026939726   0.024645353   0.011984277
  16 15      -77.8502273054    -0.0014620713   0.050876122   0.007409194
  17 16      -77.8512164181    -0.0009891127   0.009183528   0.003391654
  18 17      -77.8512984733    -0.0000820553   0.006031291   0.001427702
  19 18      -77.8513186073    -0.0000201339   0.002056141   0.000281832
         SWDIIS THRESHOLD HAS BEEN REACHED: SWITCHING DIIS OFF.
          ---------------START SECOND ORDER SCF---------------
  20 19      -77.8513197935    -0.0000011863   0.000138982   0.000023178
  21 20      -77.8513198059    -0.0000000124   0.000155909   0.000024141
  22 21      -77.8513198069    -0.0000000010   0.000065077   0.000020899
  23 22      -77.8513198110    -0.0000000041   0.000009046   0.000002419
  24 23      -77.8513198111    -0.0000000001   0.000012361   0.000002011

          ----------------
          ENERGY CONVERGED
          ----------------
     TIME TO FORM FOCK OPERATORS=       1.2 SECONDS (       0.1 SEC/ITER)
     TIME TO SOLVE SCF EQUATIONS=       0.1 SECONDS (       0.0 SEC/ITER)

 FINAL U-B3LYP ENERGY IS      -77.8513198111 AFTER  24 ITERATIONS
 DFT EXCHANGE + CORRELATION ENERGY =        -9.5243484028
 TOTAL ELECTRON NUMBER             =        14.9999967060

          --------------------
          SPIN SZ   =    0.500
          S-SQUARED =    0.764
          --------------------

  ----- ALPHA SET ----- 

          ------------
          EIGENVECTORS
          ------------

                      1          2          3          4          5
                  -10.2295   -10.2021    -0.7669    -0.5783    -0.4640
                     A          A          A          A          A   
    1  C  1  S    0.011859   1.009646  -0.019612   0.011309  -0.002221
    2  C  1  S   -0.001530   0.022141   0.316008  -0.227688  -0.000725
    3  C  1  S    0.040235  -0.073189   0.096555  -0.322089  -0.035815
    4  C  1  X   -0.000015  -0.000019  -0.000220   0.002333   0.010475
    5  C  1  Y   -0.000026   0.000001   0.008602   0.031014   0.341669
    6  C  1  Z   -0.000996  -0.000363   0.110226   0.208426  -0.207664
    7  C  1  X    0.000096   0.000099   0.000790  -0.000225  -0.000559
    8  C  1  Y   -0.001198  -0.000365   0.023113   0.029285  -0.014267
    9  C  1  Z    0.038846  -0.008912  -0.027939  -0.242439   0.042056
   10  C  1 XX    0.000203  -0.001623  -0.006326   0.001475  -0.001751
   11  C  1 YY    0.000857   0.000826  -0.007501  -0.011230   0.008732
   12  C  1 ZZ   -0.001060   0.000796   0.013827   0.009755  -0.006981
   13  C  1 XY    0.000033   0.000104  -0.000074  -0.000553   0.000189
   14  C  1 XZ    0.000016   0.000025  -0.000014  -0.000091  -0.000286
   15  C  1 YZ    0.000467   0.000083   0.000245   0.002340  -0.005987
   16  C  1  S    0.015159  -0.033728   0.016153   0.137815  -0.062689
   17  C  1  X    0.000063   0.000055  -0.000324   0.000050  -0.002092
   18  C  1  Y    0.000717   0.000770  -0.003711   0.008697  -0.058167
   19  C  1  Z    0.006195  -0.003623  -0.002060   0.011419  -0.010024
   20  C  1 XX   -0.002141   0.004868   0.006119  -0.006991  -0.006742
   21  C  1 YY   -0.004513   0.001543  -0.008144   0.106052  -0.045693
   22  C  1 ZZ    0.006654  -0.006412   0.002025  -0.099061   0.052435
   23  C  1 XY   -0.000091  -0.000130  -0.000967   0.004252  -0.001355
   24  C  1 XZ   -0.000127  -0.000099   0.000990   0.000386   0.004089
   25  C  1 YZ   -0.003028  -0.001139   0.024422   0.022125   0.104727
   26  C  2  S    1.009987  -0.013438  -0.016999  -0.006371  -0.000340
   27  C  2  S    0.022716  -0.001361   0.307215   0.268706  -0.071536
   28  C  2  S   -0.090070   0.024437   0.251118   0.492487  -0.245309
   29  C  2  X    0.000004  -0.000004   0.000082   0.001511   0.006368
   30  C  2  Y    0.000911   0.000106   0.025205   0.097744   0.257059
   31  C  2  Z   -0.000223   0.000906  -0.127909   0.117076   0.161869
   32  C  2  X    0.000001   0.000037  -0.001575  -0.001575  -0.000373
   33  C  2  Y   -0.003487  -0.001144  -0.057433  -0.096226   0.009309
   34  C  2  Z    0.030961  -0.016832  -0.090042  -0.219356   0.065539
   35  C  2 XX   -0.000836   0.000670  -0.011397  -0.001399  -0.000484
   36  C  2 YY    0.000538   0.000641  -0.003989   0.009831   0.005884
   37  C  2 ZZ    0.000297  -0.001311   0.015385  -0.008432  -0.005399
   38  C  2 XY    0.000033  -0.000004   0.000353   0.000328   0.000022
   39  C  2 XZ    0.000011   0.000007  -0.000189  -0.000244  -0.000360
   40  C  2 YZ    0.000863   0.000054  -0.006269  -0.001657  -0.009712
   41  C  2  S   -0.028838   0.019601  -0.019008  -0.117182   0.024850
   42  C  2  X   -0.000039  -0.000028   0.000163  -0.000526   0.000668
   43  C  2  Y   -0.001386  -0.001318  -0.000521  -0.026779   0.018085
   44  C  2  Z    0.004266  -0.005698   0.006356   0.005008  -0.013806
   45  C  2 XX    0.005969  -0.001060  -0.006633   0.006173   0.001285
   46  C  2 YY    0.004236  -0.001767  -0.018009  -0.060288  -0.007999
   47  C  2 ZZ   -0.010204   0.002827   0.024642   0.054116   0.006714
   48  C  2 XY   -0.000055  -0.000028   0.000175  -0.001718  -0.000173
   49  C  2 XZ   -0.000094  -0.000051   0.000524  -0.000621   0.000790
   50  C  2 YZ   -0.004104  -0.001167   0.008706  -0.019987   0.014117
   51  H  3  S   -0.000643  -0.000118   0.125449   0.257447   0.194658
   52  H  3  S    0.021347   0.007251   0.065371   0.271436   0.106460
   53  H  3  X    0.000027   0.000003  -0.000215  -0.000181   0.000038
   54  H  3  Y    0.001721   0.000006  -0.012983  -0.016866  -0.005952
   55  H  3  Z    0.000696   0.000171  -0.011173  -0.009682  -0.005190
   56  H  3  S    0.001255   0.001890   0.003963   0.025882   0.010561
   57  H  3  X   -0.000102  -0.000025  -0.000284  -0.000162  -0.000148
   58  H  3  Y   -0.007726  -0.002258  -0.007853  -0.042647  -0.011546
   59  H  3  Z   -0.002028  -0.000898  -0.017368  -0.028953  -0.010284
   60  H  4  S   -0.000327  -0.000863   0.115970  -0.230676  -0.140930
   61  H  4  S    0.017787   0.021879  -0.010970  -0.220667  -0.195721
   62  H  4  X   -0.000010  -0.000077   0.000649  -0.000851  -0.000166
   63  H  4  Y   -0.000204  -0.001546   0.014196  -0.016931   0.000750
   64  H  4  Z   -0.000628  -0.001041   0.012586  -0.005605  -0.009978
   65  H  4  S    0.001742   0.001977  -0.000107  -0.013097  -0.041366
   66  H  4  X    0.000226   0.000326  -0.000507  -0.001883  -0.002410
   67  H  4  Y    0.004788   0.006754  -0.009199  -0.020606  -0.048436
   68  H  4  Z    0.002528   0.003044   0.008520  -0.035054   0.011507
   69  H  5  S   -0.000200  -0.000906   0.127056  -0.203180   0.339973
   70  H  5  S    0.009380   0.018909   0.016579  -0.224953   0.436169
   71  H  5  X   -0.000007   0.000035  -0.000395   0.000500  -0.000233
   72  H  5  Y   -0.000070   0.001514  -0.014583   0.016689  -0.010174
   73  H  5  Z   -0.000428  -0.000931   0.011227  -0.004828   0.004962
   74  H  5  S    0.001730   0.001194   0.002154  -0.013818   0.044803
   75  H  5  X   -0.000083  -0.000171   0.000339   0.000357  -0.001468
   76  H  5  Y   -0.002372  -0.005997  -0.000048   0.020190  -0.073248
   77  H  5  Z    0.001948   0.002922  -0.001718  -0.054012   0.040673

                      6          7          8          9         10
                   -0.4135    -0.2849    -0.2744    -0.0200    -0.0020
                     A          A          A          A          A   
    1  C  1  S   -0.000032  -0.000097   0.000512   0.000017  -0.002935
    2  C  1  S   -0.037513  -0.002550   0.050182   0.002997   0.084651
    3  C  1  S   -0.167864   0.000149   0.026007   0.006607   0.343749
    4  C  1  X   -0.013134   0.390969   0.021348   0.403943  -0.000267
    5  C  1  Y   -0.253397  -0.006388  -0.137041  -0.015426   0.030557
    6  C  1  Z   -0.320169  -0.012451   0.113627  -0.002161  -0.095963
    7  C  1  X    0.001147   0.215348   0.015684   0.338511  -0.001681
    8  C  1  Y    0.061649  -0.010497   0.033137  -0.012135   0.041477
    9  C  1  Z   -0.089426  -0.000746  -0.020252  -0.001150  -0.283856
   10  C  1 XX   -0.001161  -0.000044   0.000427   0.000024   0.000939
   11  C  1 YY    0.010261   0.000113  -0.000909  -0.000037  -0.002785
   12  C  1 ZZ   -0.009100  -0.000069   0.000482   0.000013   0.001846
   13  C  1 XY    0.000649   0.000690   0.000205   0.000077  -0.000109
   14  C  1 XZ    0.000284   0.021521   0.002720  -0.030076   0.000044
   15  C  1 YZ    0.013956  -0.002933   0.040286   0.000496   0.001483
   16  C  1  S   -0.037039  -0.009926   0.158445   0.000817   1.288183
   17  C  1  X    0.001535   0.028710   0.002882   0.560382  -0.001528
   18  C  1  Y    0.052245  -0.002202   0.020337  -0.020435   0.037824
   19  C  1  Z   -0.013896  -0.002979   0.040488  -0.004320  -0.300975
   20  C  1 XX   -0.000173   0.000528  -0.005784  -0.000332  -0.039378
   21  C  1 YY   -0.042853  -0.002470   0.030080   0.000164   0.024382
   22  C  1 ZZ    0.043026   0.001942  -0.024296   0.000168   0.014996
   23  C  1 XY   -0.003174   0.004520   0.001026  -0.003204   0.002410
   24  C  1 XZ   -0.001511   0.003858  -0.001278  -0.041852   0.001855
   25  C  1 YZ   -0.052930   0.001625  -0.034195   0.002590   0.027080
   26  C  2  S   -0.000796  -0.000038  -0.000692  -0.000020  -0.002487
   27  C  2  S    0.032830   0.010954  -0.151643  -0.002549   0.056277
   28  C  2  S   -0.054344   0.022097  -0.314314  -0.005573   0.365137
   29  C  2  X   -0.004021   0.441011   0.042966  -0.412220   0.001006
   30  C  2  Y    0.038527  -0.041458   0.469946   0.009103   0.044681
   31  C  2  Z    0.374816   0.022436  -0.258415  -0.001194   0.082515
   32  C  2  X   -0.002987   0.255421   0.025636  -0.348744   0.001007
   33  C  2  Y   -0.064536  -0.020957   0.236561   0.006352   0.100324
   34  C  2  Z    0.048845   0.016435  -0.221990  -0.000355  -0.009174
   35  C  2 XX   -0.001504   0.000115  -0.004740   0.000070  -0.001708
   36  C  2 YY    0.011181   0.000193   0.000237  -0.000018  -0.004905
   37  C  2 ZZ   -0.009677  -0.000308   0.004504  -0.000052   0.006613
   38  C  2 XY    0.000299  -0.000481  -0.000177  -0.000063  -0.000102
   39  C  2 XZ    0.000629  -0.020354  -0.000734  -0.032058  -0.000056
   40  C  2 YZ    0.017474  -0.000454   0.020389   0.001421  -0.003715
   41  C  2  S   -0.016563   0.017476  -0.261993   0.001317   0.875554
   42  C  2  X   -0.000644   0.031327   0.003089  -0.512205   0.004252
   43  C  2  Y   -0.036172  -0.002092   0.022575   0.013555   0.189953
   44  C  2  Z   -0.014627  -0.000581   0.007451  -0.003167   0.140348
   45  C  2 XX   -0.003571  -0.000739   0.007182   0.000679  -0.039344
   46  C  2 YY   -0.036770   0.001613  -0.023490  -0.000767  -0.012470
   47  C  2 ZZ    0.040341  -0.000874   0.016308   0.000088   0.051814
   48  C  2 XY    0.000028  -0.001302  -0.000863   0.008338   0.000437
   49  C  2 XZ   -0.000130  -0.007185  -0.000801  -0.037781   0.001016
   50  C  2 YZ   -0.016924   0.000546  -0.010979   0.002290   0.032023
   51  H  3  S    0.233419  -0.011606   0.196753   0.004361   0.004477
   52  H  3  S    0.276891  -0.014515   0.250385   0.003884  -0.356347
   53  H  3  X   -0.000268   0.015664   0.001393  -0.020870  -0.000142
   54  H  3  Y   -0.009406  -0.000730   0.006417   0.000509  -0.010786
   55  H  3  Z    0.001234   0.001261  -0.016002  -0.000040  -0.001343
   56  H  3  S    0.036902  -0.001330   0.027817   0.007485  -0.890118
   57  H  3  X   -0.000840   0.015526   0.001145  -0.053049   0.000330
   58  H  3  Y   -0.038863   0.000666  -0.018532   0.002610   0.031269
   59  H  3  Z   -0.035008   0.002207  -0.029122   0.000525   0.032313
   60  H  4  S    0.324337  -0.007507   0.144512  -0.004470   0.007319
   61  H  4  S    0.392599  -0.009820   0.192281  -0.006030  -0.406083
   62  H  4  X    0.000408   0.014385   0.000954   0.021830   0.000404
   63  H  4  Y    0.009501  -0.000538  -0.001125  -0.000787   0.009616
   64  H  4  Z    0.003333  -0.000519   0.005159  -0.000009   0.002178
   65  H  4  S    0.036904  -0.002046   0.039660  -0.008993  -0.641735
   66  H  4  X    0.002747   0.015581   0.002378   0.045598  -0.003246
   67  H  4  Y    0.054883  -0.002655   0.035330  -0.001215  -0.063609
   68  H  4  Z    0.053087  -0.000364   0.003646   0.001056  -0.018033
   69  H  5  S   -0.074347   0.012492  -0.210824  -0.000704   0.003691
   70  H  5  S   -0.186225   0.020202  -0.339041   0.001265  -0.415809
   71  H  5  X   -0.000253   0.014313   0.000935   0.022622  -0.000339
   72  H  5  Y   -0.003033  -0.000499  -0.000012  -0.000769  -0.012280
   73  H  5  Z   -0.010903  -0.000187   0.000226  -0.000203   0.003402
   74  H  5  S   -0.043856   0.001944  -0.041789  -0.000803  -1.137853
   75  H  5  X    0.002135   0.012729   0.002133   0.052715   0.001350
   76  H  5  Y    0.051079  -0.002951   0.043438  -0.002461   0.035318
   77  H  5  Z   -0.006169   0.001544  -0.023627  -0.000380  -0.023241

                     11         12         13         14         15
                    0.0149     0.0251     0.0628     0.0711     0.0791
                     A          A          A          A          A   
    1  C  1  S   -0.001320   0.002536  -0.000203   0.007453   0.002791
    2  C  1  S    0.067202  -0.017344   0.000425  -0.013148   0.043170
    3  C  1  S    0.188854  -0.133382   0.013348  -0.386205   0.158366
    4  C  1  X   -0.004424  -0.004610  -0.172848  -0.004793   0.001331
    5  C  1  Y   -0.068353  -0.117659   0.005495   0.038124   0.013258
    6  C  1  Z   -0.036519   0.004878   0.000162   0.013613   0.054766
    7  C  1  X   -0.009283  -0.014030  -0.201313  -0.000061   0.000409
    8  C  1  Y   -0.173203  -0.371227   0.008346   0.103448   0.011783
    9  C  1  Z   -0.273615   0.103505   0.014870   0.043617  -0.040805
   10  C  1 XX    0.002766  -0.003173   0.000154  -0.007353  -0.006961
   11  C  1 YY    0.004918  -0.001802  -0.000037   0.001247  -0.010919
   12  C  1 ZZ   -0.007684   0.004975  -0.000117   0.006106   0.017881
   13  C  1 XY   -0.000007   0.000014   0.000736   0.000379  -0.000221
   14  C  1 XZ    0.000013  -0.000146  -0.006031  -0.000479   0.000011
   15  C  1 YZ   -0.004730  -0.003812   0.000524  -0.010533   0.003391
   16  C  1  S    0.455893  -1.817719   0.336010 -10.775108   1.396355
   17  C  1  X   -0.022178  -0.068408   0.628274   0.033371  -0.027577
   18  C  1  Y   -0.218074  -1.933486  -0.050961   0.438178  -0.484163
   19  C  1  Z   -0.532912  -0.404936   0.145644  -4.796026  -1.616606
   20  C  1 XX   -0.010863   0.017210  -0.004200   0.079262   0.023225
   21  C  1 YY    0.021773  -0.052288   0.001025  -0.155950   0.015086
   22  C  1 ZZ   -0.010910   0.035078   0.003175   0.076688  -0.038311
   23  C  1 XY    0.001592  -0.001055  -0.022987  -0.010699   0.000826
   24  C  1 XZ    0.000241   0.002974  -0.041805   0.000140   0.005409
   25  C  1 YZ   -0.041951   0.098270   0.004288   0.004589   0.109291
   26  C  2  S   -0.001304  -0.000778   0.000546  -0.005526   0.005620
   27  C  2  S   -0.072977   0.048720  -0.000881   0.040631   0.032114
   28  C  2  S   -0.231716   0.255154  -0.035480   0.420493   0.052165
   29  C  2  X    0.000139  -0.001760  -0.127767  -0.007362   0.002415
   30  C  2  Y   -0.084882  -0.045789   0.008494  -0.142827   0.060553
   31  C  2  Z   -0.027078   0.023686  -0.000960   0.005589  -0.075058
   32  C  2  X   -0.000621   0.001508  -0.144991  -0.006546  -0.002563
   33  C  2  Y   -0.160782   0.100712  -0.005750   0.118199  -0.136676
   34  C  2  Z   -0.244823   0.149385   0.009028   0.052062  -0.057100
   35  C  2 XX   -0.003368   0.001429  -0.000162   0.001611  -0.009866
   36  C  2 YY   -0.001612   0.002227   0.000130  -0.000393  -0.013730
   37  C  2 ZZ    0.004981  -0.003656   0.000032  -0.001218   0.023595
   38  C  2 XY   -0.000099  -0.000038  -0.004005  -0.000074  -0.000093
   39  C  2 XZ    0.000419   0.000323   0.013397   0.000565  -0.000183
   40  C  2 YZ    0.008252   0.007430  -0.000630   0.001738  -0.006917
   41  C  2  S   -0.504585   2.363191  -0.365567  11.077879  -0.194372
   42  C  2  X   -0.000870   0.029895   0.593878   0.037011  -0.003839
   43  C  2  Y   -0.547093   1.027248  -0.015644   0.313159  -0.052173
   44  C  2  Z   -0.607177  -0.254599   0.149928  -4.185881   1.834349
   45  C  2 XX    0.007752  -0.041031   0.005223  -0.076617   0.063267
   46  C  2 YY   -0.063673   0.034773  -0.004005   0.086705  -0.025432
   47  C  2 ZZ    0.055921   0.006258  -0.001217  -0.010088  -0.037835
   48  C  2 XY   -0.001280   0.001729   0.039659   0.004732  -0.003228
   49  C  2 XZ   -0.000941   0.001424   0.014709   0.002305   0.002036
   50  C  2 YZ   -0.071135   0.084401   0.000423   0.061452   0.081993
   51  H  3  S    0.016190   0.014754   0.000026  -0.023326  -0.020421
   52  H  3  S    0.667236  -0.560370   0.030731  -0.861950   0.202856
   53  H  3  X    0.000240   0.000048   0.005761   0.000378  -0.000142
   54  H  3  Y    0.010383   0.000102  -0.000597   0.009931  -0.008564
   55  H  3  Z    0.008097  -0.000389  -0.000142   0.005208   0.006933
   56  H  3  S    2.540913  -1.449632  -0.103192   3.498545  -0.110387
   57  H  3  X   -0.000935   0.001585  -0.040087   0.000170  -0.001001
   58  H  3  Y   -0.083484   0.137285  -0.004298   0.141691  -0.085793
   59  H  3  Z   -0.020135   0.003704  -0.008357   0.137084  -0.095061
   60  H  4  S   -0.009419   0.012899   0.000930  -0.021788  -0.022472
   61  H  4  S   -0.454400  -0.445096  -0.004422   0.595213  -0.333451
   62  H  4  X    0.000267   0.000234   0.003509   0.000105   0.000118
   63  H  4  Y    0.007486   0.002728  -0.000119  -0.000186   0.003503
   64  H  4  Z    0.007232   0.002784   0.000278  -0.010544  -0.011695
   65  H  4  S   -2.061003  -3.105792  -0.007373   0.451366  -1.131841
   66  H  4  X   -0.002414  -0.002585  -0.070008   0.000996   0.000308
   67  H  4  Y   -0.061220  -0.050866   0.003726   0.030262  -0.009418
   68  H  4  Z   -0.009062  -0.053892   0.000620   0.148557   0.027347
   69  H  5  S    0.002723  -0.002689  -0.000599   0.025947  -0.039060
   70  H  5  S   -0.155239   0.862102   0.003669   0.411551   0.091698
   71  H  5  X   -0.000253   0.000020   0.004186   0.000084  -0.000268
   72  H  5  Y   -0.002361   0.004273  -0.000204  -0.001236  -0.006263
   73  H  5  Z    0.003207  -0.007261   0.000030  -0.002207  -0.014110
   74  H  5  S   -0.464684   3.805458   0.142925  -4.370608   0.543081
   75  H  5  X    0.002184  -0.001962  -0.031938  -0.000251  -0.001840
   76  H  5  Y    0.063374  -0.093269  -0.000641  -0.002946  -0.090334
   77  H  5  Z    0.051931   0.068412  -0.000092   0.102585   0.038641

                     16         17         18         19         20
                    0.1118     0.1126     0.1166     0.1282     0.1459
                     A          A          A          A          A   
    1  C  1  S    0.005983  -0.001118  -0.038720  -0.014904  -0.014763
    2  C  1  S   -0.056854   0.015092  -0.205122  -0.020131  -0.118456
    3  C  1  S   -0.981304   0.242572   0.317049   0.529180   0.520885
    4  C  1  X   -0.052775  -0.229978  -0.003758   0.008591   0.003081
    5  C  1  Y    0.114098  -0.019789  -0.083997   0.237221   0.035221
    6  C  1  Z    0.003153  -0.001022   0.121142   0.003428   0.128352
    7  C  1  X   -0.062279  -0.175686  -0.002698  -0.040776  -0.002195
    8  C  1  Y   -0.410178   0.113020   0.289127  -0.934848  -0.167053
    9  C  1  Z   -1.187287   0.335902  -1.559386  -0.381043   1.564048
   10  C  1 XX    0.000287  -0.000375   0.019930   0.016533  -0.039446
   11  C  1 YY   -0.000028   0.000063   0.003935  -0.007913   0.048607
   12  C  1 ZZ   -0.000259   0.000312  -0.023865  -0.008620  -0.009161
   13  C  1 XY   -0.000569  -0.001185  -0.000622  -0.001045   0.003066
   14  C  1 XZ    0.002232   0.006549  -0.000314   0.000427  -0.000804
   15  C  1 YZ    0.023406  -0.005974  -0.007348   0.008819  -0.016445
   16  C  1  S   -5.612993   1.217368   5.062726   5.294662   0.045216
   17  C  1  X    0.502841   2.176304   0.060443  -0.206461  -0.083243
   18  C  1  Y   -0.350882   0.021689   1.835339  -6.056005  -2.440506
   19  C  1  Z   -3.533967   0.870473  -1.957246   1.695083   0.529135
   20  C  1 XX    0.047970  -0.009690  -0.160782  -0.037337  -0.096772
   21  C  1 YY    0.169896  -0.052976   0.341166   0.194184  -0.665665
   22  C  1 ZZ   -0.217865   0.062666  -0.180384  -0.156847   0.762437
   23  C  1 XY    0.015925   0.030763   0.019190   0.016208  -0.020872
   24  C  1 XZ    0.014492   0.054979   0.003912   0.009905   0.018938
   25  C  1 YZ   -0.056765   0.013278  -0.012188   0.333802   0.314287
   26  C  2  S    0.008878  -0.001931  -0.035764  -0.026132   0.024608
   27  C  2  S    0.110253  -0.026490  -0.111821  -0.098812   0.012003
   28  C  2  S    0.443048  -0.132176   1.272195   0.773686  -2.185039
   29  C  2  X    0.061939   0.232793   0.001629   0.000647  -0.001474
   30  C  2  Y    0.173217  -0.049278  -0.007614   0.002069  -0.096268
   31  C  2  Z    0.056416  -0.013412  -0.085107  -0.008454  -0.068340
   32  C  2  X    0.053397   0.221913   0.000689   0.010047  -0.019799
   33  C  2  Y   -0.366896   0.095662   0.131363   0.412029  -0.507305
   34  C  2  Z   -1.315641   0.359726  -0.904937   0.127227   1.107667
   35  C  2 XX   -0.004856   0.001375   0.005179   0.013224  -0.011975
   36  C  2 YY    0.006064  -0.001585   0.002677  -0.007774   0.017936
   37  C  2 ZZ   -0.001208   0.000210  -0.007856  -0.005451  -0.005961
   38  C  2 XY    0.001482   0.005756  -0.000208  -0.000831   0.001070
   39  C  2 XZ    0.000313   0.004000   0.000090  -0.000659   0.000174
   40  C  2 YZ   -0.015651   0.003387   0.004162  -0.016633   0.001569
   41  C  2  S    3.972479  -0.869340   2.615963  -0.914547  -1.845276
   42  C  2  X   -0.584727  -2.154257  -0.033963   0.084610   0.022573
   43  C  2  Y   -2.701858   0.748308  -0.784727   3.527989   0.696583
   44  C  2  Z   -4.068222   0.993130  -0.168702   2.252131   1.072336
   45  C  2 XX    0.008666  -0.003532  -0.127207  -0.069845  -0.023014
   46  C  2 YY   -0.300566   0.082513  -0.130348   0.043331   0.199052
   47  C  2 ZZ    0.291900  -0.078980   0.257556   0.026514  -0.176038
   48  C  2 XY   -0.020664  -0.058703  -0.000952   0.001461   0.007474
   49  C  2 XZ    0.017342   0.084419   0.003814   0.001985   0.006815
   50  C  2 YZ   -0.238825   0.060734   0.090558   0.139078   0.192475
   51  H  3  S   -0.019409   0.002443   0.012486  -0.087741   0.105097
   52  H  3  S    2.207777  -0.590300  -0.508224  -1.790465   0.594014
   53  H  3  X   -0.000229   0.000743   0.000201   0.000162  -0.000159
   54  H  3  Y   -0.019402   0.004913   0.011299   0.011184  -0.008183
   55  H  3  Z   -0.011283   0.002985  -0.001928   0.015284  -0.005428
   56  H  3  S    6.012369  -1.517321   0.216175  -3.883917  -0.786090
   57  H  3  X    0.017330   0.118883   0.004078  -0.000311   0.007211
   58  H  3  Y   -0.604076   0.155796   0.242681   0.284987   0.227666
   59  H  3  Z   -0.368239   0.094744   0.063253   0.159923  -0.140080
   60  H  4  S    0.028121  -0.004379  -0.003459  -0.056944   0.096102
   61  H  4  S   -1.024295   0.308526  -1.696309  -3.134491   0.742996
   62  H  4  X   -0.000373   0.000506  -0.000476  -0.000936  -0.000803
   63  H  4  Y   -0.010550   0.003041  -0.009584  -0.022684  -0.023689
   64  H  4  Z   -0.008960   0.002598  -0.001190  -0.011066   0.005831
   65  H  4  S   -3.803100   0.976383  -0.813960  -5.122786  -1.949568
   66  H  4  X   -0.032865  -0.083763  -0.022840  -0.031181  -0.005353
   67  H  4  Y   -0.316963   0.090739  -0.442103  -0.567194  -0.463588
   68  H  4  Z   -0.294930   0.080995  -0.213711  -0.577675   0.407772
   69  H  5  S   -0.017666   0.004884  -0.017198  -0.020835   0.225344
   70  H  5  S    0.007522   0.041236  -2.712690   1.115809   2.842369
   71  H  5  X   -0.000601  -0.001444   0.000795  -0.000542   0.000460
   72  H  5  Y   -0.007993   0.001887   0.026125  -0.016202   0.011160
   73  H  5  Z    0.000827  -0.000022  -0.013498   0.014649  -0.000219
   74  H  5  S   -1.158169   0.314111  -4.242968   6.598495   2.816689
   75  H  5  X   -0.030822  -0.118139   0.016758  -0.014680   0.010463
   76  H  5  Y   -0.011739  -0.000914   0.667754  -0.422692   0.133111
   77  H  5  Z    0.107053  -0.019180  -0.412498   0.164802   0.435581

                     21         22         23         24         25
                    0.1683     0.1955     0.2193     0.2524     0.2853
                     A          A          A          A          A   
    1  C  1  S    0.049453   0.018325   0.000001  -0.005026  -0.008907
    2  C  1  S    0.160180   0.010220   0.001365  -0.028684  -0.135841
    3  C  1  S   -2.121874  -0.532876   0.002834   0.714360   0.354920
    4  C  1  X   -0.004774   0.008159   0.001027  -0.005540   0.002770
    5  C  1  Y   -0.063737   0.127500  -0.006149  -0.200295   0.009874
    6  C  1  Z   -0.064971  -0.016902   0.001155   0.075988  -0.012397
    7  C  1  X   -0.001968   0.023897  -0.074850  -0.005287   0.009614
    8  C  1  Y   -0.094901   0.603937   0.001508  -0.216704   0.059910
    9  C  1  Z   -1.000858   1.206311  -0.003858   0.780932   2.332552
   10  C  1 XX    0.014380  -0.024549   0.003878  -0.015165  -0.023213
   11  C  1 YY   -0.005665   0.025172  -0.003747   0.018575  -0.073512
   12  C  1 ZZ   -0.008715  -0.000623  -0.000131  -0.003410   0.096725
   13  C  1 XY   -0.002145   0.004252   0.046905   0.000175  -0.001619
   14  C  1 XZ   -0.000955   0.000988  -0.002444  -0.001301   0.000594
   15  C  1 YZ   -0.037410   0.038136  -0.004657  -0.031394  -0.014028
   16  C  1  S  -18.333550 -20.385117   0.200440 -10.692799   2.190622
   17  C  1  X   -0.032189   0.078279   0.013705  -0.056017  -0.000390
   18  C  1  Y   -0.151710   2.481505  -0.114197  -1.673017  -0.956526
   19  C  1  Z   -6.256102  -5.740919   0.035054  -2.427491   4.002665
   20  C  1 XX    0.180648   0.117369  -0.017371   0.082205  -0.270052
   21  C  1 YY    0.139295  -0.549261   0.022298  -0.231132   0.150290
   22  C  1 ZZ   -0.319943   0.431892  -0.004927   0.148927   0.119762
   23  C  1 XY   -0.000031  -0.033384  -0.171523  -0.004127   0.007817
   24  C  1 XZ    0.012599  -0.012463  -0.019423   0.031583  -0.009468
   25  C  1 YZ    0.437713  -0.219352   0.052316   0.850358   0.215265
   26  C  2  S   -0.045870  -0.017065   0.000027  -0.004437   0.033749
   27  C  2  S   -0.198510  -0.047369  -0.001648  -0.002675   0.160997
   28  C  2  S    1.618482  -0.494320   0.021108  -0.409467  -0.565374
   29  C  2  X    0.002671  -0.004235  -0.040701   0.006810   0.000745
   30  C  2  Y   -0.038552   0.060221   0.003249   0.290246  -0.038975
   31  C  2  Z   -0.107632  -0.009100  -0.002617   0.023968  -0.253076
   32  C  2  X   -0.000488   0.003797  -0.232555  -0.001343   0.027323
   33  C  2  Y   -0.125089   0.811339  -0.020468   0.394704   0.430551
   34  C  2  Z   -1.195632   1.109199  -0.013736   0.803198   1.481249
   35  C  2 XX   -0.016312   0.012163   0.000062   0.014340   0.028504
   36  C  2 YY    0.011660   0.002959  -0.000909  -0.021695   0.020967
   37  C  2 ZZ    0.004652  -0.015122   0.000847   0.007355  -0.049471
   38  C  2 XY    0.000018   0.000979   0.022370  -0.001091  -0.001078
   39  C  2 XZ    0.000660  -0.000970   0.009079   0.000306  -0.000796
   40  C  2 YZ    0.017168  -0.052730   0.003239   0.010009  -0.006179
   41  C  2  S   18.619107  20.520327  -0.195921  11.342403  -3.912136
   42  C  2  X   -0.014284  -0.028073  -0.171052   0.042303   0.021149
   43  C  2  Y   -1.656930  -1.002718   0.016994   1.542484   1.291298
   44  C  2  Z   -6.117905  -5.142217   0.001936  -2.542896   1.528698
   45  C  2 XX   -0.184391  -0.158068   0.022334  -0.009919   0.186107
   46  C  2 YY   -0.159244   0.203317  -0.012256   0.204745   0.180454
   47  C  2 ZZ    0.343635  -0.045249  -0.010078  -0.194826  -0.366561
   48  C  2 XY   -0.005994   0.022737   0.250938  -0.002655   0.005697
   49  C  2 XZ    0.010656  -0.005670  -0.112998   0.020521   0.002204
   50  C  2 YZ    0.333527   0.262194   0.018779   0.610019   0.312740
   51  H  3  S    0.174303  -0.179378   0.010832  -0.092405  -0.021437
   52  H  3  S   -0.318811  -2.983712   0.010667  -2.929591  -2.098545
   53  H  3  X    0.000437  -0.000502  -0.004004   0.000149  -0.000179
   54  H  3  Y    0.013042  -0.002072   0.000715  -0.003594   0.002818
   55  H  3  Z    0.005502  -0.007291   0.000368  -0.004331  -0.011231
   56  H  3  S    3.120686   1.669244   0.040018   0.261735  -2.662306
   57  H  3  X    0.002531   0.026268   0.532394  -0.015676  -0.019606
   58  H  3  Y    0.603030   0.625127  -0.010977  -0.224798   0.687468
   59  H  3  Z    0.162428  -0.203584   0.043710   0.202006   0.262553
   60  H  4  S   -0.159927   0.218930  -0.011703   0.013292   0.020478
   61  H  4  S   -0.574376   3.612335  -0.120431  -0.691169   1.137274
   62  H  4  X    0.000699   0.000216  -0.000522   0.000363   0.000485
   63  H  4  Y    0.020230   0.001356   0.000779   0.000003   0.015681
   64  H  4  Z    0.021636  -0.001900   0.001466   0.024758  -0.008696
   65  H  4  S   -2.013825   0.922473  -0.105689  -0.459029   0.930083
   66  H  4  X    0.015052  -0.006058  -0.725162   0.012804  -0.005777
   67  H  4  Y    0.148786   0.186010   0.019338  -0.332497   0.586580
   68  H  4  Z    0.219726   0.129292   0.037000   0.442364  -0.852691
   69  H  5  S    0.025658  -0.055766   0.005941   0.155531   0.047633
   70  H  5  S    1.528894   1.004886   0.061696   2.769811   1.882418
   71  H  5  X   -0.000723   0.000477   0.003086   0.000451  -0.000345
   72  H  5  Y   -0.016032   0.002081   0.000123   0.016540  -0.012720
   73  H  5  Z   -0.007644   0.016693  -0.001890  -0.017566  -0.017376
   74  H  5  S   -1.446161  -3.036710   0.071807  -0.101362   2.680776
   75  H  5  X   -0.030248   0.037832   0.829242  -0.016574  -0.027728
   76  H  5  Y   -0.477141  -0.035520  -0.051978  -0.029644  -0.819645
   77  H  5  Z   -0.029645   0.599150  -0.042395  -0.500485  -0.888189

                     26         27         28         29         30
                    0.3084     0.3157     0.3553     0.3773     0.4043
                     A          A          A          A          A   
    1  C  1  S   -0.004356  -0.031208  -0.000864  -0.020136   0.040291
    2  C  1  S   -0.018959  -0.131383  -0.000610  -0.059762  -0.016935
    3  C  1  S    0.190433   1.501653   0.037885   1.751399  -2.100467
    4  C  1  X   -0.060799   0.004318  -0.245918   0.010405   0.000218
    5  C  1  Y   -0.018428  -0.135833   0.011717   0.278462   0.054667
    6  C  1  Z   -0.036787  -0.252776  -0.000940  -0.075214  -0.000658
    7  C  1  X   -0.329689   0.050416  -0.972391   0.125962  -0.006792
    8  C  1  Y    0.056816   0.218666   0.046789   3.083309   0.338189
    9  C  1  Z    0.373948   2.392351  -0.014383   1.775992  -1.823044
   10  C  1 XX   -0.006328  -0.027240  -0.000193  -0.013734   0.018347
   11  C  1 YY    0.000328   0.000153   0.000003   0.007344   0.009161
   12  C  1 ZZ    0.006000   0.027087   0.000191   0.006390  -0.027508
   13  C  1 XY   -0.034109   0.005979   0.011188  -0.000495  -0.000900
   14  C  1 XZ   -0.018616   0.001727  -0.029502  -0.001643  -0.000830
   15  C  1 YZ   -0.001891  -0.022614   0.000323  -0.050030  -0.010346
   16  C  1  S    0.959800   4.851258   0.111611   0.134218  -6.193910
   17  C  1  X   -0.130421  -0.096523  -1.111356   0.188963   0.036330
   18  C  1  Y   -0.540718  -3.550902   0.077358   4.851670   1.620428
   19  C  1  Z    0.332590   1.429192   0.017272  -0.027378  -1.787340
   20  C  1 XX    0.007619  -0.090517  -0.010498  -0.090474   0.532901
   21  C  1 YY   -0.112793  -0.565052  -0.001967  -0.334302   0.607887
   22  C  1 ZZ    0.105174   0.655569   0.012465   0.424776  -1.140788
   23  C  1 XY    0.504499  -0.093000  -0.226275  -0.014817   0.019498
   24  C  1 XZ    0.026831   0.024965   0.073583   0.016829   0.009542
   25  C  1 YZ    0.126737   1.021549   0.010980   0.272134   0.255293
   26  C  2  S    0.004977   0.028557  -0.000135   0.010181   0.032560
   27  C  2  S    0.019859   0.111065   0.000597   0.027988  -0.012044
   28  C  2  S   -0.264549  -1.566679  -0.011202  -0.584020  -0.290679
   29  C  2  X   -0.109693   0.018983   0.045538   0.000689  -0.006745
   30  C  2  Y    0.007345   0.033403  -0.001970   0.034567  -0.201163
   31  C  2  Z   -0.004190   0.012625  -0.002105  -0.019811   0.036329
   32  C  2  X   -0.648233   0.077554   0.452707  -0.022293  -0.044923
   33  C  2  Y   -0.033872  -0.413383  -0.026990   0.226818  -2.269496
   34  C  2  Z    0.451386   3.072716  -0.003862   2.016904  -2.934282
   35  C  2 XX    0.005807   0.028518  -0.000249   0.006889   0.005679
   36  C  2 YY    0.006544   0.051695   0.000084   0.011313  -0.021674
   37  C  2 ZZ   -0.012350  -0.080214   0.000165  -0.018202   0.015995
   38  C  2 XY    0.035240  -0.004177  -0.010384   0.000165  -0.000167
   39  C  2 XZ    0.023979  -0.003332   0.015205   0.000120   0.000018
   40  C  2 YZ   -0.003996  -0.021388  -0.000781   0.006574  -0.006569
   41  C  2  S   -0.768142  -3.855969  -0.055679   0.604380   0.667599
   42  C  2  X   -0.438391   0.123620   0.538391  -0.039788  -0.055785
   43  C  2  Y    0.423509   2.627703  -0.026915  -0.629773  -2.760074
   44  C  2  Z    0.607218   3.798608   0.009824   0.584964  -1.860174
   45  C  2 XX    0.031695   0.368469  -0.014437   0.132132   0.898001
   46  C  2 YY    0.071544   0.410882   0.012290   0.792778  -0.961910
   47  C  2 ZZ   -0.103239  -0.779352   0.002147  -0.924910   0.063909
   48  C  2 XY   -0.359494   0.053663  -0.177187   0.014774  -0.048868
   49  C  2 XZ   -0.138260   0.046264   0.324327   0.024635   0.006803
   50  C  2 YZ    0.156493   1.146538   0.000029   0.705119   0.128360
   51  H  3  S   -0.006100  -0.016577  -0.000073   0.058025  -0.033993
   52  H  3  S   -0.449098  -3.097749   0.004142  -3.315190   6.794950
   53  H  3  X    0.004945  -0.000510   0.000178  -0.000033   0.000016
   54  H  3  Y   -0.000367  -0.000385  -0.000164   0.000303   0.001970
   55  H  3  Z   -0.005077  -0.034401  -0.000172  -0.009310   0.008956
   56  H  3  S   -0.488993  -2.864420  -0.007857  -0.553410   3.002005
   57  H  3  X    1.499321  -0.197085  -0.393989   0.005353  -0.002374
   58  H  3  Y    0.124994   1.066864   0.003712   0.481672  -1.457407
   59  H  3  Z   -0.153131  -1.045969   0.004772   0.744052  -0.859173
   60  H  4  S   -0.011405  -0.048962  -0.000142   0.026345   0.037942
   61  H  4  S   -0.027437  -0.460228  -0.045525   4.364898   0.212271
   62  H  4  X    0.004799  -0.000568  -0.011878   0.000283  -0.000235
   63  H  4  Y    0.000029  -0.000859   0.000342   0.004943   0.003954
   64  H  4  Z    0.000135   0.003507   0.000224   0.002539   0.000592
   65  H  4  S   -0.189732  -1.283583   0.019454   4.148358   0.236704
   66  H  4  X    1.288516  -0.184427   0.717802   0.031357   0.028070
   67  H  4  Y    0.016422   0.174016  -0.063032  -0.089218  -0.292167
   68  H  4  Z    0.089340   0.765482   0.005128   1.558567  -0.417850
   69  H  5  S    0.003706   0.044101  -0.000489   0.011408   0.023494
   70  H  5  S    0.429624   3.323779  -0.032765  -2.709566   0.428358
   71  H  5  X   -0.006336   0.001131  -0.010011   0.000418  -0.000016
   72  H  5  Y    0.000836   0.008371   0.000738   0.014258   0.000896
   73  H  5  Z   -0.004478  -0.032317  -0.000073  -0.018043   0.001697
   74  H  5  S    0.587076   3.612510  -0.036454  -3.875298  -0.994854
   75  H  5  X   -0.453682   0.065260   1.617679  -0.047768  -0.013245
   76  H  5  Y   -0.059009  -0.560477  -0.052972  -0.384210  -0.202006
   77  H  5  Z    0.044159   0.397287  -0.012015  -0.889196  -0.213257

                     31         32         33         34         35
                    0.4386     0.4443     0.4489     0.4763     0.4819
                     A          A          A          A          A   
    1  C  1  S    0.064818   0.015291  -0.002476   0.023848  -0.009102
    2  C  1  S    0.031515  -0.044833   0.000124  -0.028056   0.005777
    3  C  1  S   -4.231430   0.648746   0.227611  -2.315216   0.676493
    4  C  1  X    0.010141  -0.015383   0.248937   0.006270   0.052386
    5  C  1  Y    0.028295  -0.068337  -0.008993  -0.126494  -0.023695
    6  C  1  Z    0.088438   0.007722   0.004079  -0.020276  -0.012776
    7  C  1  X    0.075552  -0.012549   1.827397  -0.058986   0.362081
    8  C  1  Y   -0.577447   1.171879   0.186774  -3.798041   0.297179
    9  C  1  Z    5.996676   3.646465   0.021951  -1.053195   0.504763
   10  C  1 XX    0.017881  -0.007907   0.000101  -0.012625  -0.001295
   11  C  1 YY   -0.026644  -0.005213  -0.000377   0.013376  -0.002141
   12  C  1 ZZ    0.008763   0.013120   0.000277  -0.000751   0.003436
   13  C  1 XY   -0.001453  -0.000457   0.001849   0.000600   0.004503
   14  C  1 XZ    0.000198  -0.000053  -0.014411  -0.002523   0.030268
   15  C  1 YZ    0.019054   0.010964  -0.001882  -0.008337  -0.006398
   16  C  1  S   -6.982189  -3.951678  -0.394194   3.778794   0.172714
   17  C  1  X    0.029326   0.037835   1.148477   0.019026  -0.135390
   18  C  1  Y   -0.566955   1.609697   0.121346  -0.870985   0.223572
   19  C  1  Z    1.088769   0.298138  -0.103061   0.790451  -0.005378
   20  C  1 XX    0.579726   0.285886  -0.006988  -0.455337  -0.037696
   21  C  1 YY   -1.942253  -0.697328   0.017152   0.549329  -0.327346
   22  C  1 ZZ    1.362527   0.411442  -0.010165  -0.093992   0.365042
   23  C  1 XY   -0.111476  -0.053793  -0.252628   0.042793   0.321246
   24  C  1 XZ   -0.002679  -0.039431  -0.115770   0.074599  -1.420449
   25  C  1 YZ    0.615627  -2.649398  -0.095949  -0.048997  -0.201849
   26  C  2  S    0.061708   0.027425  -0.002856   0.051522   0.012299
   27  C  2  S   -0.002009  -0.029816  -0.003409   0.016126   0.003795
   28  C  2  S   -6.411047  -2.408596   0.189135  -4.006816  -1.460370
   29  C  2  X    0.002242   0.002085  -0.259161  -0.025791   0.247885
   30  C  2  Y    0.125020   0.064512   0.007359  -0.134344  -0.012697
   31  C  2  Z    0.033627  -0.078421   0.005678  -0.181058  -0.016077
   32  C  2  X   -0.018499   0.052820  -0.693552  -0.109845   1.515831
   33  C  2  Y   -0.717535   3.129753   0.164527  -1.505422  -0.107015
   34  C  2  Z    3.160418   2.597027   0.125421  -2.561844   0.454215
   35  C  2 XX    0.033119  -0.001763  -0.000857  -0.010798   0.002713
   36  C  2 YY   -0.012939   0.027145   0.001159   0.015931   0.002292
   37  C  2 ZZ   -0.020180  -0.025382  -0.000302  -0.005133  -0.005004
   38  C  2 XY   -0.001197   0.000257   0.004630   0.001066  -0.004070
   39  C  2 XZ   -0.000745   0.002264  -0.015287  -0.001073  -0.002175
   40  C  2 YZ   -0.021029   0.054964   0.003086   0.011523   0.004637
   41  C  2  S   -0.564529   1.244161   0.509017  -4.806766  -0.310050
   42  C  2  X   -0.008669   0.004005  -1.189556  -0.069350   0.516337
   43  C  2  Y    0.505042   0.031369   0.004816  -0.218124  -0.130718
   44  C  2  Z   -0.240371  -0.146313  -0.067122   0.163580  -0.003615
   45  C  2 XX    0.036973   0.192780  -0.019247  -0.150832   0.047490
   46  C  2 YY    0.498468   1.340051   0.027295   0.098404  -0.012772
   47  C  2 ZZ   -0.535441  -1.532831  -0.008048   0.052428  -0.034719
   48  C  2 XY    0.011444   0.003856  -0.660075  -0.049480   0.987447
   49  C  2 XZ    0.030243  -0.077269   1.070501   0.046337   0.326575
   50  C  2 YZ   -0.329370  -0.852306   0.012751  -0.429540   0.037809
   51  H  3  S   -0.091791   0.187686   0.009794   0.117994   0.027827
   52  H  3  S    1.059755  -2.953320  -0.384021   6.534924   0.486423
   53  H  3  X   -0.000714  -0.000090  -0.017385  -0.000764   0.021976
   54  H  3  Y   -0.018854   0.013546   0.000580   0.029520   0.000223
   55  H  3  Z   -0.020702   0.025065   0.001680   0.001880   0.002666
   56  H  3  S   -0.059869  -0.194001  -0.021425   0.891081   0.146200
   57  H  3  X   -0.011090   0.024250   0.754960   0.007444  -1.417727
   58  H  3  Y   -0.355685  -0.268882   0.115658  -3.272937  -0.204411
   59  H  3  Z   -0.117515   1.393198   0.023292  -0.861499  -0.251394
   60  H  4  S   -0.043948  -0.083924  -0.009090   0.033424  -0.045734
   61  H  4  S    6.251605   9.278514   0.449499  -6.199773   0.835608
   62  H  4  X    0.000440  -0.000711   0.016886   0.001239  -0.004236
   63  H  4  Y    0.007367  -0.018108  -0.001404   0.003635   0.001879
   64  H  4  Z   -0.005201  -0.010960   0.001067  -0.003325   0.004350
   65  H  4  S    1.445955   1.886886   0.086880  -0.933567   0.061698
   66  H  4  X    0.023110   0.187755  -1.280092  -0.112881  -0.154507
   67  H  4  Y    1.111767   2.977348   0.158862  -1.661208   0.069671
   68  H  4  Z    1.865447   0.098582  -0.006473  -1.262163   0.103521
   69  H  5  S   -0.175862   0.094290   0.008031   0.104138  -0.000830
   70  H  5  S    9.114842  -2.588856  -0.499460   4.824217  -0.481209
   71  H  5  X    0.000187  -0.001679   0.007993   0.000725   0.013852
   72  H  5  Y   -0.006739  -0.005433  -0.000370   0.022198  -0.000595
   73  H  5  Z    0.006666  -0.004059  -0.001283   0.004761  -0.002260
   74  H  5  S    1.525488  -0.473115  -0.119754   0.844029  -0.177603
   75  H  5  X   -0.071354   0.115450  -0.430982  -0.057833  -1.155813
   76  H  5  Y   -2.141651   1.473750   0.204390  -2.600949   0.297342
   77  H  5  Z    1.107947   0.976913  -0.054900   1.410812   0.126497

                     36         37         38         39         40
                    0.4870     0.4941     0.5043     0.5564     0.5634
                     A          A          A          A          A   
    1  C  1  S    0.012281   0.103766  -0.024639   0.078186  -0.000285
    2  C  1  S   -0.106362  -0.000968  -0.024101   0.019066   0.005804
    3  C  1  S   -1.626539  -8.247547   4.296930  -8.319213  -0.027413
    4  C  1  X    0.018358   0.005200  -0.006062  -0.005331   0.070883
    5  C  1  Y    0.181526   0.000356  -0.110089  -0.065747   0.001423
    6  C  1  Z   -0.239512   0.328323  -0.076290  -0.152631   0.001613
    7  C  1  X    0.101404   0.017911  -0.221776  -0.048461   1.347800
    8  C  1  Y   -0.432793  -0.825402  -7.042691  -0.334731   0.145740
    9  C  1  Z   -2.706511  -2.691043   1.296272  -1.643929   0.379623
   10  C  1 XX   -0.009959   0.009338  -0.005297   0.025828   0.002033
   11  C  1 YY    0.011936   0.031812  -0.009088  -0.007957  -0.001929
   12  C  1 ZZ   -0.001977  -0.041149   0.014385  -0.017871  -0.000104
   13  C  1 XY    0.002264   0.001600  -0.000019  -0.001930   0.002770
   14  C  1 XZ    0.003551   0.002894   0.000663  -0.000735  -0.055981
   15  C  1 YZ    0.057596  -0.005016   0.012511  -0.027000   0.000118
   16  C  1  S    3.999573  -5.044451  -4.797158 -14.715583  -0.009495
   17  C  1  X    0.001968  -0.032402  -0.063683   0.008167   0.217781
   18  C  1  Y   -0.193919  -0.573647  -1.891959   0.912389  -0.027905
   19  C  1  Z    0.259783  -0.233233  -0.953132  -4.882355   0.000410
   20  C  1 XX   -0.246459   0.299897   0.593895  -0.035017   0.057660
   21  C  1 YY    0.439598   2.651319  -0.629747  -1.828512  -0.240215
   22  C  1 ZZ   -0.193139  -2.951216   0.035853   1.863529   0.182556
   23  C  1 XY    0.068103   0.148474   0.041318  -0.136038   1.592483
   24  C  1 XZ   -0.060797  -0.148195  -0.026044   0.011170   2.215371
   25  C  1 YZ    0.845424   0.444183   0.248836   0.121636  -0.054637
   26  C  2  S   -0.009443  -0.088952  -0.033256  -0.051209   0.002160
   27  C  2  S    0.088729  -0.081975  -0.016963   0.136621   0.003311
   28  C  2  S    2.420777  10.113695   2.967011   2.967856  -0.348912
   29  C  2  X    0.008758   0.018846  -0.002775   0.002790  -0.318615
   30  C  2  Y    0.072777  -0.021997  -0.016844   0.005877   0.006431
   31  C  2  Z   -0.190918   0.184044   0.007644  -0.093058   0.008799
   32  C  2  X    0.057199   0.176272   0.111329  -0.004862  -1.455008
   33  C  2  Y   -0.507419   1.031582   3.310638   0.717862   0.084035
   34  C  2  Z   -2.929628  -3.074847   2.480877  -1.494163   0.358053
   35  C  2 XX    0.012530  -0.050268   0.001449   0.011592   0.002603
   36  C  2 YY   -0.015291   0.003994   0.007725  -0.026742  -0.002564
   37  C  2 ZZ    0.002761   0.046274  -0.009174   0.015150  -0.000039
   38  C  2 XY    0.000251   0.001732   0.000217  -0.001696   0.027129
   39  C  2 XZ   -0.001932  -0.000393  -0.000086   0.000574  -0.033239
   40  C  2 YZ   -0.031650   0.006750   0.011228  -0.013041  -0.000344
   41  C  2  S   -3.838825   5.387699   5.793133  15.694744   0.052141
   42  C  2  X    0.011729   0.052434   0.023604  -0.014683  -0.381239
   43  C  2  Y   -0.183073   0.451514   0.993107  -1.188942   0.041256
   44  C  2  Z    0.317324  -0.720079  -0.681296  -3.830763   0.046358
   45  C  2 XX    0.236417  -0.332454  -0.031609  -0.378320   0.007674
   46  C  2 YY    0.334755  -0.572865   1.451921  -0.887546   0.001370
   47  C  2 ZZ   -0.571172   0.905319  -1.420311   1.265866  -0.009043
   48  C  2 XY    0.047571   0.076828   0.064173  -0.029884   0.052373
   49  C  2 XZ    0.061739   0.040393   0.023604  -0.030235   1.888921
   50  C  2 YZ   -0.949668   0.282022  -0.378261   0.992545   0.042208
   51  H  3  S   -0.183522  -0.029575   0.051013  -0.151621  -0.004129
   52  H  3  S    2.068963  -3.885069  -7.410633  -3.063615  -0.294243
   53  H  3  X    0.001109   0.002848   0.000949  -0.001559  -0.001680
[...]
 II,JST,KST,LST =  1  1  1  1 NREC =         1 INTLOC =    1
 II,JST,KST,LST =  2  1  1  1 NREC =         1 INTLOC =    1
 II,JST,KST,LST =  3  1  1  1 NREC =         1 INTLOC =    1
 II,JST,KST,LST =  4  1  1  1 NREC =         1 INTLOC =    1
 II,JST,KST,LST =  5  1  1  1 NREC =         1 INTLOC =    1
 II,JST,KST,LST =  6  1  1  1 NREC =         1 INTLOC =    1
 II,JST,KST,LST =  7  1  1  1 NREC =         1 INTLOC =    4
 II,JST,KST,LST =  8  1  1  1 NREC =         1 INTLOC =   49
 II,JST,KST,LST =  9  1  1  1 NREC =         1 INTLOC =   49
 II,JST,KST,LST = 10  1  1  1 NREC =         1 INTLOC = 1273
 II,JST,KST,LST = 11  1  1  1 NREC =         1 INTLOC = 1273
 II,JST,KST,LST = 12  1  1  1 NREC =         1 INTLOC = 1273
 II,JST,KST,LST = 13  1  1  1 NREC =         1 INTLOC = 1595
 II,JST,KST,LST = 14  1  1  1 NREC =         1 INTLOC = 2438
 II,JST,KST,LST = 15  1  1  1 NREC =         1 INTLOC = 2438
 II,JST,KST,LST = 16  1  1  1 NREC =         1 INTLOC = 2438
 II,JST,KST,LST = 17  1  1  1 NREC =         1 INTLOC = 3050
 II,JST,KST,LST = 18  1  1  1 NREC =         1 INTLOC = 4007
 II,JST,KST,LST = 19  1  1  1 NREC =         1 INTLOC = 5921
 II,JST,KST,LST = 20  1  1  1 NREC =         1 INTLOC = 8422
 II,JST,KST,LST = 21  1  1  1 NREC =         2 INTLOC =  798
 II,JST,KST,LST = 22  1  1  1 NREC =         2 INTLOC =  798
 II,JST,KST,LST = 23  1  1  1 NREC =         2 INTLOC = 9975
 II,JST,KST,LST = 24  1  1  1 NREC =         3 INTLOC =13002
 II,JST,KST,LST = 25  1  1  1 NREC =         4 INTLOC =11025
 II,JST,KST,LST = 26  1  1  1 NREC =         4 INTLOC =11025
 II,JST,KST,LST = 27  1  1  1 NREC =         5 INTLOC = 9570
 II,JST,KST,LST = 28  1  1  1 NREC =         6 INTLOC = 9653
 II,JST,KST,LST = 29  1  1  1 NREC =         8 INTLOC = 1487
 II,JST,KST,LST = 30  1  1  1 NREC =         9 INTLOC =  132
 II,JST,KST,LST = 31  1  1  1 NREC =         9 INTLOC =  132
 II,JST,KST,LST = 32  1  1  1 NREC =        12 INTLOC = 3611
 II,JST,KST,LST = 33  1  1  1 NREC =        12 INTLOC =10926
 II,JST,KST,LST = 34  1  1  1 NREC =        16 INTLOC = 4969
 II,JST,KST,LST = 35  1  1  1 NREC =        16 INTLOC = 4969
 II,JST,KST,LST = 36  1  1  1 NREC =        18 INTLOC = 6142
 II,JST,KST,LST = 37  1  1  1 NREC =        18 INTLOC = 6142
 II,JST,KST,LST = 38  1  1  1 NREC =        20 INTLOC = 7144
 II,JST,KST,LST = 39  1  1  1 NREC =        23 INTLOC = 5430
 II,JST,KST,LST = 40  1  1  1 NREC =        35 INTLOC =12370
 II,JST,KST,LST = 41  1  1  1 NREC =        35 INTLOC =12370
 II,JST,KST,LST = 42  1  1  1 NREC =        39 INTLOC = 2188
 II,JST,KST,LST = 43  1  1  1 NREC =        42 INTLOC = 6240
 II,JST,KST,LST = 44  1  1  1 NREC =        44 INTLOC = 1311
 II,JST,KST,LST = 45  1  1  1 NREC =        46 INTLOC = 9258
 II,JST,KST,LST = 46  1  1  1 NREC =        49 INTLOC = 5997
 II,JST,KST,LST = 47  1  1  1 NREC =        54 INTLOC = 6513
 II,JST,KST,LST = 48  1  1  1 NREC =        64 INTLOC =10732
 II,JST,KST,LST = 49  1  1  1 NREC =        83 INTLOC =12615
 II,JST,KST,LST = 50  1  1  1 NREC =        87 INTLOC = 6608
 II,JST,KST,LST = 51  1  1  1 NREC =       108 INTLOC =11315
 II,JST,KST,LST = 52  1  1  1 NREC =       124 INTLOC =14055
 II,JST,KST,LST = 53  1  1  1 NREC =       132 INTLOC = 7827
 II,JST,KST,LST = 54  1  1  1 NREC =       136 INTLOC =11040
 II,JST,KST,LST = 55  1  1  1 NREC =       168 INTLOC = 8429
 II,JST,KST,LST = 56  1  1  1 NREC =       168 INTLOC = 8429
 II,JST,KST,LST = 57  1  1  1 NREC =       172 INTLOC =10846
 II,JST,KST,LST = 58  1  1  1 NREC =       180 INTLOC =14137
 II,JST,KST,LST = 59  1  1  1 NREC =       186 INTLOC =11121
 II,JST,KST,LST = 60  1  1  1 NREC =       213 INTLOC =10955
 II,JST,KST,LST = 61  1  1  1 NREC =       213 INTLOC =10955
 II,JST,KST,LST = 62  1  1  1 NREC =       233 INTLOC = 3969
 II,JST,KST,LST = 63  1  1  1 NREC =       240 INTLOC = 4539
 II,JST,KST,LST = 64  1  1  1 NREC =       242 INTLOC = 1122
 II,JST,KST,LST = 65  1  1  1 NREC =       258 INTLOC = 7315
 II,JST,KST,LST = 66  1  1  1 NREC =       261 INTLOC =11583
 SCHWARZ INEQUALITY TEST SKIPPED       33191 INTEGRAL BLOCKS.
 TOTAL NUMBER OF NONZERO TWO-ELECTRON INTEGRALS =            66901805
       4469 INTEGRAL RECORDS WERE STORED ON DISK FILE  8.
  ...... END OF TWO-ELECTRON INTEGRALS .....
 CPU     0: STEP CPU TIME=     0.26 TOTAL CPU TIME=         24.4 (      0.4 MIN)
 TOTAL WALL CLOCK TIME=         24.8 SECONDS, CPU UTILIZATION IS    98.35%

          ---------------------------------------------
          MONOMER ELECTROSTATIC INTERACTION (OWN BASIS)
          ---------------------------------------------

          -------------
          GUESS OPTIONS
          -------------
          GUESS =MOSAVED           NORB  =       0          NORDER=       0
          MIX   =       F          PRTMO =       F          PUNMO =       F
          TOLZ  = 1.0E-08          TOLE  = 1.0E-05
          SYMDEN=       F          PURIFY=       F

 INITIAL GUESS ORBITALS GENERATED BY MOSAVED  ROUTINE.

 STATISTICS FOR GENERATION OF SYMMETRY ORBITAL -Q- MATRIX
 NUMBER OF CARTESIAN ATOMIC ORBITALS=        154
 NUMBER OF SPHERICAL CONTAMINANTS DROPPED=     8
 NUMBER OF LINEARLY DEPENDENT MOS DROPPED=     0
 TOTAL NUMBER OF MOS IN VARIATION SPACE=     146
 ...... END OF INITIAL ORBITAL SELECTION ......
 CPU     0: STEP CPU TIME=     0.01 TOTAL CPU TIME=         24.4 (      0.4 MIN)
 TOTAL WALL CLOCK TIME=         24.8 SECONDS, CPU UTILIZATION IS    98.35%

          ---------------------------
                  UHF SCF CALCULATION
          ---------------------------

 FINAL UHF ENERGY IS     -155.2999673013 AFTER   1 ITERATIONS
 ...... END OF UHF CALCULATION ......
 CPU     0: STEP CPU TIME=     0.08 TOTAL CPU TIME=         24.5 (      0.4 MIN)
 TOTAL WALL CLOCK TIME=         24.9 SECONDS, CPU UTILIZATION IS    98.32%

          -------------
          GUESS OPTIONS
          -------------
          GUESS =MOSAVED           NORB  =       0          NORDER=       0
          MIX   =       F          PRTMO =       F          PUNMO =       F
          TOLZ  = 1.0E-08          TOLE  = 1.0E-05
          SYMDEN=       F          PURIFY=       F

 INITIAL GUESS ORBITALS GENERATED BY MOSAVED  ROUTINE.

 STATISTICS FOR GENERATION OF SYMMETRY ORBITAL -Q- MATRIX
 NUMBER OF CARTESIAN ATOMIC ORBITALS=        154
 NUMBER OF SPHERICAL CONTAMINANTS DROPPED=     8
 NUMBER OF LINEARLY DEPENDENT MOS DROPPED=     0
 TOTAL NUMBER OF MOS IN VARIATION SPACE=     146
 ...... END OF INITIAL ORBITAL SELECTION ......
 CPU     0: STEP CPU TIME=     0.01 TOTAL CPU TIME=         24.5 (      0.4 MIN)
 TOTAL WALL CLOCK TIME=         24.9 SECONDS, CPU UTILIZATION IS    98.32%

          ---------------------------
                  UHF SCF CALCULATION
          ---------------------------

 DIRECT SCF CALCULATION, SCHWRZ=T   FDIFF=T
 SCHWARZ INEQUALITY OVERHEAD:     11935 INTEGRALS, T=        0.00

 FINAL UHF ENERGY IS     -332.1285102349 AFTER   1 ITERATIONS
 ...... END OF UHF CALCULATION ......
 CPU     0: STEP CPU TIME=     0.28 TOTAL CPU TIME=         24.7 (      0.4 MIN)
 TOTAL WALL CLOCK TIME=         25.2 SECONDS, CPU UTILIZATION IS    98.32%

 XEDA STEP ENERGY SUMMATION
 ETOT =       -155.29996730     ENUC =        103.42080854
 EEXCH=        -22.94544183

          --------------------------------------------------
          MONOMER EXCHANGE-REPULSION INTERACTION (OWN BASIS)
          --------------------------------------------------

          -------------
          GUESS OPTIONS
          -------------
          GUESS =MOSAVED           NORB  =       0          NORDER=       0
          MIX   =       F          PRTMO =       F          PUNMO =       F
          TOLZ  = 1.0E-08          TOLE  = 1.0E-05
          SYMDEN=       F          PURIFY=       F

 INITIAL GUESS ORBITALS GENERATED BY MOSAVED  ROUTINE.

 STATISTICS FOR GENERATION OF SYMMETRY ORBITAL -Q- MATRIX
 NUMBER OF CARTESIAN ATOMIC ORBITALS=        154
 NUMBER OF SPHERICAL CONTAMINANTS DROPPED=     8
 NUMBER OF LINEARLY DEPENDENT MOS DROPPED=     0
 TOTAL NUMBER OF MOS IN VARIATION SPACE=     146
 ...... END OF INITIAL ORBITAL SELECTION ......
 CPU     0: STEP CPU TIME=     0.01 TOTAL CPU TIME=         24.7 (      0.4 MIN)
 TOTAL WALL CLOCK TIME=         25.2 SECONDS, CPU UTILIZATION IS    98.32%

          ---------------------------
                  UHF SCF CALCULATION
          ---------------------------

 FINAL UHF ENERGY IS     -154.6238537673 AFTER   1 ITERATIONS
 ...... END OF UHF CALCULATION ......
 CPU     0: STEP CPU TIME=     0.08 TOTAL CPU TIME=         24.8 (      0.4 MIN)
 TOTAL WALL CLOCK TIME=         25.3 SECONDS, CPU UTILIZATION IS    98.29%

 XEDA STEP ENERGY SUMMATION
 ETOT =       -154.62385377     ENUC =        103.42080854

          ---------------------------------------------
          MONOMER ELECTROSTATIC INTERACTION (ALL BASIS)
          ---------------------------------------------

          -------------
          GUESS OPTIONS
          -------------
          GUESS =MOSAVED           NORB  =       0          NORDER=       0
          MIX   =       F          PRTMO =       F          PUNMO =       F
          TOLZ  = 1.0E-08          TOLE  = 1.0E-05
          SYMDEN=       F          PURIFY=       F

 INITIAL GUESS ORBITALS GENERATED BY MOSAVED  ROUTINE.

 STATISTICS FOR GENERATION OF SYMMETRY ORBITAL -Q- MATRIX
 NUMBER OF CARTESIAN ATOMIC ORBITALS=        154
 NUMBER OF SPHERICAL CONTAMINANTS DROPPED=     8
 NUMBER OF LINEARLY DEPENDENT MOS DROPPED=     0
 TOTAL NUMBER OF MOS IN VARIATION SPACE=     146
 ...... END OF INITIAL ORBITAL SELECTION ......
 CPU     0: STEP CPU TIME=     0.01 TOTAL CPU TIME=         24.8 (      0.4 MIN)
 TOTAL WALL CLOCK TIME=         25.3 SECONDS, CPU UTILIZATION IS    98.29%

          ---------------------------
                  UHF SCF CALCULATION
          ---------------------------

 FINAL UHF ENERGY IS     -155.3058549331 AFTER   1 ITERATIONS
 ...... END OF UHF CALCULATION ......
 CPU     0: STEP CPU TIME=     0.08 TOTAL CPU TIME=         24.9 (      0.4 MIN)
 TOTAL WALL CLOCK TIME=         25.3 SECONDS, CPU UTILIZATION IS    98.26%

          -------------
          GUESS OPTIONS
          -------------
          GUESS =MOSAVED           NORB  =       0          NORDER=       0
          MIX   =       F          PRTMO =       F          PUNMO =       F
          TOLZ  = 1.0E-08          TOLE  = 1.0E-05
          SYMDEN=       F          PURIFY=       F

 INITIAL GUESS ORBITALS GENERATED BY MOSAVED  ROUTINE.

 STATISTICS FOR GENERATION OF SYMMETRY ORBITAL -Q- MATRIX
 NUMBER OF CARTESIAN ATOMIC ORBITALS=        154
 NUMBER OF SPHERICAL CONTAMINANTS DROPPED=     8
 NUMBER OF LINEARLY DEPENDENT MOS DROPPED=     0
 TOTAL NUMBER OF MOS IN VARIATION SPACE=     146
 ...... END OF INITIAL ORBITAL SELECTION ......
 CPU     0: STEP CPU TIME=     0.01 TOTAL CPU TIME=         24.9 (      0.4 MIN)
 TOTAL WALL CLOCK TIME=         25.4 SECONDS, CPU UTILIZATION IS    98.26%

          ---------------------------
                  UHF SCF CALCULATION
          ---------------------------

 DIRECT SCF CALCULATION, SCHWRZ=T   FDIFF=T
 SCHWARZ INEQUALITY OVERHEAD:     11935 INTEGRALS, T=        0.00

 FINAL UHF ENERGY IS     -332.1515621674 AFTER   1 ITERATIONS
 ...... END OF UHF CALCULATION ......
 CPU     0: STEP CPU TIME=     0.28 TOTAL CPU TIME=         25.2 (      0.4 MIN)
 TOTAL WALL CLOCK TIME=         25.6 SECONDS, CPU UTILIZATION IS    98.25%

 XEDA STEP ENERGY SUMMATION
 ETOT =       -155.30585493     ENUC =        103.42080854
 EEXCH=        -22.94591486

          --------------------------------------------------
          MONOMER EXCHANGE-REPULSION INTERACTION (ALL BASIS)
          --------------------------------------------------

          -------------
          GUESS OPTIONS
          -------------
          GUESS =MOSAVED           NORB  =       0          NORDER=       0
          MIX   =       F          PRTMO =       F          PUNMO =       F
          TOLZ  = 1.0E-08          TOLE  = 1.0E-05
          SYMDEN=       F          PURIFY=       F

 INITIAL GUESS ORBITALS GENERATED BY MOSAVED  ROUTINE.

 STATISTICS FOR GENERATION OF SYMMETRY ORBITAL -Q- MATRIX
 NUMBER OF CARTESIAN ATOMIC ORBITALS=        154
 NUMBER OF SPHERICAL CONTAMINANTS DROPPED=     8
 NUMBER OF LINEARLY DEPENDENT MOS DROPPED=     0
 TOTAL NUMBER OF MOS IN VARIATION SPACE=     146
 ...... END OF INITIAL ORBITAL SELECTION ......
 CPU     0: STEP CPU TIME=     0.01 TOTAL CPU TIME=         25.2 (      0.4 MIN)
 TOTAL WALL CLOCK TIME=         25.6 SECONDS, CPU UTILIZATION IS    98.25%

          ---------------------------
                  UHF SCF CALCULATION
          ---------------------------

 FINAL UHF ENERGY IS     -154.6287462484 AFTER   1 ITERATIONS
 ...... END OF UHF CALCULATION ......
 CPU     0: STEP CPU TIME=     0.08 TOTAL CPU TIME=         25.3 (      0.4 MIN)
 TOTAL WALL CLOCK TIME=         25.7 SECONDS, CPU UTILIZATION IS    98.22%

 XEDA STEP ENERGY SUMMATION
 ETOT =       -154.62874625     ENUC =        103.42080854

          --------------------------------
          RESULTS OF INTERACTION ANALYSIS
          --------------------------------

     ENERGY TERMS
     T   ELECTRON KINETIC AND COULOMB POTENTIAL
     X   E-E EXCHANGE COMBINE WITH DIAGNANAL VALUE
     N   NUCLEUS-NUCLEUS REPULSION ENERGY

 --------------
 MONOMER ENERGY
 --------------

 MONOMER    1

                   OWN BASIS           ALL BASIS

 T              -93.92723001        -93.92735353
 X              -11.31241960        -11.31285156
 N               27.86274157         27.86274157
 EC              -0.47441178         -0.47498556
 E              -77.85131981        -77.85244908

 MONOMER    2

                   OWN BASIS           ALL BASIS

 T              -93.92722127        -93.92734276
 X              -11.31241837        -11.31284821
 N               27.86273073         27.86273073
 EC              -0.47441638         -0.47500747
 E              -77.85132529        -77.85246771

 ------------------------------------------------------------
 SUPER MOLECULE ENERGY  USING NON-ANTISYMMETRIC WAVEFUNCTION
 (ELECTROSTATIC ENERGY: T N CHANGE)
 ------------------------------------------------------------

              FROM OWN BASIS      FROM ALL BASIS
 T             -235.77533401       -235.78074861
 X              -22.62483798        -22.62569977
 N              103.42080854        103.42080854
 E             -154.97936345       -154.98563984

 ----------------------------------------------------------------------
 SUPER MOLECULE ENERGY  USING ANTISYMMETRIC NONORTHONORMAL WAVEFUNCTION
 (EXCHANGE ENERGY: ONLY X CHANGES)
 ----------------------------------------------------------------------

              FROM OWN BASIS      FROM ALL BASIS
 T             -235.77533401       -235.78074861
 X              -22.94544183        -22.94591486
 N              103.42080854        103.42080854
 E             -155.29996730       -155.30585493

 -----------------------------------------------------------------------
 SUPER MOLECULE ENERGY  USING ANTISYMMETRIC AND ORTHONORMAL WAVEFUNCTION
 (REPULSION ENERGY: T X CHANGE)
 -----------------------------------------------------------------------

              FROM OWN BASIS      FROM ALL BASIS
 T+X           -258.04466231       -258.04955479
 N              103.42080854        103.42080854
 E             -154.62385377       -154.62874625

 ---------------------------------------------
 SUPER MOLECULE ENERGY  USING SCF WAVEFUNCTION
 (POLARIZATION ENERGY: T X CHANGE)
 ---------------------------------------------
 T+X           -258.32969800
 N              103.42080854
 EC              -0.98680672
 E             -155.89569617


                   *******************************
                   SUMMARY OF INTERACTION ENERGIES
                     XEDA IN XIAMEN UNIVERSITY    
                    - ZHEN TANG AND PEIFENG SU -  
                   *******************************


 -------------
 OWN BASIS SET                                       HARTREE          KCAL/MOL
 -------------
 ELECTROSTATIC ENERGY                  ES=         -0.225546           -141.53
 EXCHANGE ENERGY                       EX=         -0.320604           -201.18
 REPULSION ENERGY                     REP=          0.676114            424.27
 POLARIZATION ENERGY                  POL=         -0.285036           -178.86
 ELECTRON CORRELATION                CORR=         -0.037979            -23.83
 TOTAL INTERACTION ENERGY               E=         -0.193051           -121.14
  

 -------------
 ALL BASIS SET                                       HARTREE          KCAL/MOL
 -------------
 ELECTROSTATIC ENERGY                  ES=         -0.230716           -144.78
 EXCHANGE ENERGY                       EX=         -0.320215           -200.94
 REPULSION ENERGY                     REP=          0.677109            424.89
 POLARIZATION ENERGY                  POL=         -0.280143           -175.79
 ELECTRON CORRELATION                CORR=         -0.036814            -23.10
 TOTAL INTERACTION ENERGY               E=         -0.190779           -119.72
  

                     ***************************
                     END OF INTERACTION ANALYSIS
                     ***************************

              1301896  WORDS OF DYNAMIC MEMORY USED
 EXECUTION OF GAMESS TERMINATED NORMALLY 14:32:23 25-DEC-2023    
 DDI: 263640 bytes (0.3 MB / 0 MWords) used by master data server.

 ----------------------------------------
 CPU timing information for all processes
 ========================================
 0: 24.590 + 0.692 = 25.283
 1: 24.461 + 0.507 = 24.968
 2: 24.415 + 0.598 = 25.13
 3: 24.410 + 0.544 = 24.954
 4: 24.463 + 0.608 = 25.72
 5: 24.406 + 0.534 = 24.940
 6: 24.410 + 0.594 = 25.05
 7: 24.402 + 0.559 = 24.962
 8: 24.393 + 0.643 = 25.37
 9: 24.434 + 0.502 = 24.936
 10: 24.425 + 0.531 = 24.957
 11: 24.320 + 0.539 = 24.859
 12: 24.350 + 0.608 = 24.959
 13: 24.380 + 0.541 = 24.921
 14: 24.381 + 0.551 = 24.932
 15: 24.356 + 0.510 = 24.866
 ----------------------------------------
 ddikick.x: exited gracefully.
----- accounting info -----
Files used on the master node w015 were:
-rw-r--r-- 1 xacs0647 10000  2703863 Dec 25 14:32 /job_dir/3_1685753/3.dat
-rw-r--r-- 1 xacs0647 10000      238 Dec 25 14:32 /job_dir/3_1685753/3.err
-rw-r--r-- 1 xacs0647 10000      837 Dec 25 14:31 /job_dir/3_1685753/3.F05
-rw-r--r-- 1 xacs0647 10000 50404480 Dec 25 14:32 /job_dir/3_1685753/3.F08
-rw-r--r-- 1 xacs0647 10000 52024624 Dec 25 14:32 /job_dir/3_1685753/3.F08.001
-rw-r--r-- 1 xacs0647 10000 50944528 Dec 25 14:32 /job_dir/3_1685753/3.F08.002
-rw-r--r-- 1 xacs0647 10000 51484576 Dec 25 14:32 /job_dir/3_1685753/3.F08.003
-rw-r--r-- 1 xacs0647 10000 51304560 Dec 25 14:32 /job_dir/3_1685753/3.F08.004
-rw-r--r-- 1 xacs0647 10000 49684416 Dec 25 14:32 /job_dir/3_1685753/3.F08.005
-rw-r--r-- 1 xacs0647 10000 48604320 Dec 25 14:32 /job_dir/3_1685753/3.F08.006
-rw-r--r-- 1 xacs0647 10000 56345008 Dec 25 14:32 /job_dir/3_1685753/3.F08.007
-rw-r--r-- 1 xacs0647 10000 47704240 Dec 25 14:32 /job_dir/3_1685753/3.F08.008
-rw-r--r-- 1 xacs0647 10000 50944528 Dec 25 14:32 /job_dir/3_1685753/3.F08.009
-rw-r--r-- 1 xacs0647 10000 49684416 Dec 25 14:32 /job_dir/3_1685753/3.F08.010
-rw-r--r-- 1 xacs0647 10000 46444128 Dec 25 14:32 /job_dir/3_1685753/3.F08.011
-rw-r--r-- 1 xacs0647 10000 48064272 Dec 25 14:32 /job_dir/3_1685753/3.F08.012
-rw-r--r-- 1 xacs0647 10000 48424304 Dec 25 14:32 /job_dir/3_1685753/3.F08.013
-rw-r--r-- 1 xacs0647 10000 53104720 Dec 25 14:32 /job_dir/3_1685753/3.F08.014
-rw-r--r-- 1 xacs0647 10000 49324384 Dec 25 14:32 /job_dir/3_1685753/3.F08.015
-rw-r--r-- 1 xacs0647 10000  5758720 Dec 25 14:32 /job_dir/3_1685753/3.F10
-rw-r--r-- 1 xacs0647 10000      837 Dec 25 14:31 /job_dir/3_1685753/3.inp
-rw-r--r-- 1 xacs0647 10000  2403536 Dec 25 14:32 /job_dir/3_1685753/3.out
Mon Dec 25 14:32:26 CST 2023
0.091u 0.201s 0:29.46 0.9%	0+0k 0+32io 0pf+0w
