----- GAMESS execution script 'rungms' -----
This job is running on host w012
under operating system Linux at Mon Dec 25 14:31:58 CST 2023
Available scratch disk space (Kbyte units) at beginning of the job is
Filesystem              1K-blocks    Used Available Use% Mounted on
/dev/mapper/system-root 932514944 2696596 929818348   1% /
GAMESS temporary binary files will be written to /job_dir/4_1685754
GAMESS supplementary output files will be written to /job_dir/4_1685754
Copying input file ./4.inp to your run's scratch directory...
 
Assuming a single but multicore node.
 

 Distributed Data Interface kickoff program.
 Initiating 16 compute processes on 1 nodes to run the following command:
 /share/apps/xeda-apps/xeda-td/gamess.00.x 4 

          *******************************************************
          *                                                     *
          *          GAMESS VERSION = 30 SEP 2020 (R2)          *
          *                                                     *
          *              doi.org/10.1063/5.0005188              *
          *                                                     *
          **************** 64 BIT LINUX VERSION *****************

  GAMESS HAS BEEN MADE POSSIBLE WITH IMPORTANT CONTRIBUTIONS FROM
  THE FOLLOWING INDIVIDUALS (IN ALPHABETICAL ORDER):

     IVANA ADAMOVIC, CHRISTINE AIKENS, TOMOKO AKAMA,
     YURI ALEXEEV, YURIKO AOKI, POOJA ARORA, TOSHIO ASADA,
     ANDREY ASADCHEV, KIM K. BALDRIDGE, PRADIPTA BANDYOPADHYAY,
     MARIA BARYSZ, ROB BELL, JONATHAN BENTZ, COLLEEN BERTONI,
     JERRY A. BOATZ, BRETT BODE, KURT BRORSEN, KURT R. BRORSEN,
     LAIMUTIS BYTAUTAS, CALEB CARLIN, LAURA CARRINGTON,
     GALINA CHABAN, BENOIT CHAMPAGNE, WEI CHEN, MAHITO CHIBA,
     DAN CHIPMAN, CHEOL HO CHOI, TANNER CULPITT,
     DIPAYAN DATTA, PAUL DAY, ALBERT DEFUSCO,
     NUWAN DESILVA, J. EMILIANO DEUSTUA,
     TIM DUDLEY, MICHEL DUPUIS, STEVEN T. ELBERT,
     DMITRI FEDOROV, ALEX FINDLATER, GRAHAM FLETCHER,
     MARK FREITAG, CHRISTIAN FRIEDL, DAVID GARMER,
     IGOR S. GERASIMOV, KURT GLAESEMANN, MARK S. GORDON,
     JEFFREY GOUR, FENG LONG GU, EMILIE B. GUIDEZ,
     ANASTASIA GUNINA, SHARON HAMMES-SCHIFFER, MASATAKE HARUTA,
     KIMIHIKO HIRAO, YASUHIRO IKABATA, TZVETELIN IORDANOV,
     STEPHAN IRLE, KAZUYA ISHIMURA, JOE IVANIC, FRANK JENSEN,
     JAN H. JENSEN, VISVALDAS KAIRYS, MUNEAKI KAMIYA,
     MICHIO KATOUDA, NAOAKI KAWAKAMI, DAN KEMP, BERNARD KIRTMAN,
     KAZUO KITAURA, MARIUSZ KLOBUKOWSKI, MASATO KOBAYASHI,
     PRAKASHAN KORAMBATH, JACEK KORCHOWIEC, SHIRO KOSEKI,
     KAROL KOWALSKI, JIMMY KROMANN, STANISLAW KUCHARSKI,
     HENRY KURTZ, SAROM SOK LEANG, HUI LI, SHUHUA LI, WEI LI,
     JESSE LUTZ, ALEKSANDR O. LYKHIN, MARCIN MAKOWSKI,
     JOANI MATO, NIKITA MATSUNAGA, BENEDETTA MENNUCCI,
     GRANT MERRILL, NORIYUKI MINEZAWA, VLADIMIR MIRONOV,
     EISAKU MIYOSHI, JOHN A. MONTGOMERY JR., HIROTOSHI MORI,
     JONATHAN MULLIN, MONIKA MUSIAL, SHIGERU NAGASE,
     TAKESHI NAGATA, HIROMI NAKAI, TAKAHITO NAKAJIMA,
     YUYA NAKAJIMA, HARUYUKI NAKANO, HIROYA NAKATA, SEAN NEDD,
     HEATHER NETZLOFF, KIET A. NGUYEN, YOSHIO NISHIMOTO,
     BOSILJKA NJEGIC, RYAN OLSON, MIKE PAK, ROBERTO PEVERATI,
     BUU PHAM, PIOTR PIECUCH, ANNA POMOGAEVA, DAVID POOLE,
     SPENCER PRUITT, OLIVIER QUINET, LUKE ROSKOP,
     KLAUS RUEDENBERG, ANDREW SAND, TOSAPORN SATTASATHUCHANA,
     NOZOMI SAWADA, MICHAEL W. SCHMIDT, PATRICK E. SCHNEIDER,
     JUNJI SEINO, PRACHI SHARMA, JUN SHEN, JIM SHOEMAKER,
     YINAN SHU, DEJUN SI, JONATHAN SKONE, LYUDMILA SLIPCHENKO,
     TONY SMITH, JIE SONG, MARK SPACKMAN, CASPER STEINMANN,
     WALT STEVENS, PEIFENG SU, SHUJUN SU, CHET SWALINA,
     TETSUYA TAKETSUGU, ZHEN TAO, NANDUN THELLAMUREGE
     SEIKEN TOKURA, JACOPO TOMASI, TSUGUKI TOUMA, TAKAO TSUNEDA,
     HIROAKI UMEDA, JORGE LUIS GALVEZ VALLEJO, YALI WANG,
     SIMON WEBB, AARON WEST, THERESA L. WINDUS, MARTA WLOCH,
     PENG XU, KIYOSHI YAGI, SUSUMU YANAGISAWA, YANG YANG,
     SOOHAENG YOO, TAKESHI YOSHIKAWA, FEDERICO ZAHARIEV,
     TOBY ZENG

  WHO ARE SUPPORTED BY THEIR INSTITUTION/UNIVERSITY/COMPANY/GROUP
  (IN ALPHABETICAL ORDER):

     EP ANALYTICS, FACULTES UNIVERSITAIRES NOTRE-DAME DE LA PAIX,
     INSTITUTE FOR MOLECULAR SCIENCE, IOWA STATE UNIVERSITY,
     JACKSON STATE UNIVERSITY, JOHANNES KEPLER UNIVERSITY LINZ,
     KYUSHU UNIVERSITY, MICHIGAN STATE UNIVERSITY,
     MIE UNIVERSITY, MOSCOW STATE UNIVERSITY,
     N. COPERNICUS UNIVERSITY, NAGOYA UNIVERSITY,
     NANJING UNIVERSITY, NAT. INST. OF ADVANCED INDUSTRIAL
     SCIENCE AND TECHNOLOGY, NATIONAL INST. OF STANDARDS AND
     TECHNOLOGY, NESMEYANOV INSTITUTE OF ORGANOELEMENT COMPOUNDS
     OF RUSSIAN ACADEMY OF SCIENCES, OSAKA PREFECTURE UNIVERSITY,
     PENNSYLVANIA STATE UNIVERSITY, TOKYO INSTITUTE OF TECHNOLOGY,
     UNIVERSITY OF AARHUS, UNIVERSITY OF ALBERTA,
     UNIVERSITY OF CALIFORNIA AT SANTA BARBARA,
     UNIVERSITY OF COPENHAGEN, UNIVERSITY OF IOWA,
     UNIVERSITY OF MEMPHIS, UNIVERSITY OF MINNESOTA,
     UNIVERSITY OF NEBRASKA, UNIVERSITY OF NEW ENGLAND,
     UNIVERSITY OF NOTRE DAME, UNIVERSITY OF PISA,
     UNIVERSITY OF SILESIA, UNIVERSITY OF TOKYO,
     UNIVERSITY OF ZURICH, WASEDA UNIVERSITY, YALE UNIVERSITY

  GAMESS SOFTWARE MANAGEMENT TEAM FOR THIS RELEASE:
     MARK S. GORDON (TEAM LEAD),
     BRETT BODE (SENIOR ADVISOR),
     GIUSEPPE BARCA,
     COLLEEN BERTONI,
     KRISTOPHER KEIPERT (ADVISOR),
     SAROM S. LEANG (DEVELOPMENT LEAD),
     BUU PHAM,
     JORGE LUIS GALVEZ VALLEJO (WEBSITE ADMINISTRATOR),
     PENG XU


 PARALLEL VERSION RUNNING ON       16 PROCESSORS IN        1 NODES.

 EXECUTION OF GAMESS BEGUN 14:31:58 25-DEC-2023    

            ECHO OF THE FIRST FEW INPUT CARDS -
 INPUT CARD> $CONTRL SCFTYP=UHF RUNTYP=EDA dfttyp=B3LYP ispher=1 icharg=0 mult=1 $END       
 INPUT CARD> $SYSTEM  mwords=150 memddi=150 $END                                            
 INPUT CARD> $BASIS gbasis=accd $END                                                        
 INPUT CARD> $LMOEDA MATOM(1)=5 5 MCHARG(1)=0 0 MMULT(1)=2 -2 edatyp=gks $end               
 INPUT CARD> $scf DIIS=.TRUE. ETHRSH=2.0 SWDIIS=0.005 $end                                  
 INPUT CARD> $data                                                                          
 INPUT CARD> EDA calculation with XEDA 1.0                                                  
 INPUT CARD> c1                                                                             
 INPUT CARD>C   6   -0.1433151751    0.9177713962   -1.3508297161                           
 INPUT CARD>C   6   -0.1433151751    0.9177713962    0.0065985363                           
 INPUT CARD>H   1   -0.1386922162    1.8779101547    0.5368603259                           
 INPUT CARD>H   1   -0.1862393786   -0.0086464403   -1.9309720120                           
 INPUT CARD>H   1   -0.1182707106    1.8466936655   -1.9249747509                           
 INPUT CARD>C   6   -0.1433151751   -0.3007109753    0.8671638884                           
 INPUT CARD>C   6    0.4110957020   -1.4942713944    0.5345140710                           
 INPUT CARD>H   1    0.9524046187   -1.6408021426   -0.4047273030                           
 INPUT CARD>H   1    0.3560446709   -2.3584408587    1.2003536255                           
 INPUT CARD>H   1   -0.6408053682   -0.1996603847    1.8394511518                           
 INPUT CARD> $end                                                                           
  150000000 WORDS OF MEMORY AVAILABLE

     BASIS OPTIONS
     -------------
     GBASIS=ACCD         IGAUSS=       0      POLAR=NONE    
     NDFUNC=       0     NFFUNC=       0     DIFFSP=       F
     NPFUNC=       0      DIFFS=       F     BASNAM=        


     RUN TITLE
     ---------
  EDA calculation with XEDA 1.0                                                  

 THE POINT GROUP OF THE MOLECULE IS C1      
 THE ORDER OF THE PRINCIPAL AXIS IS     0

 ATOM      ATOMIC                      COORDINATES (BOHR)
           CHARGE         X                   Y                   Z
 C           6.0    -0.2708264108        1.7343364582       -2.5526980195
 C           6.0    -0.2708264108        1.7343364582        0.0124694255
 H           1.0    -0.2620902852        3.5487356219        1.0145189096
 H           1.0    -0.3519413937       -0.0163394029       -3.6490079926
 H           1.0    -0.2234992354        3.4897450111       -3.6376748125
 C           6.0    -0.2708264108       -0.5682613448        1.6387021355
 C           6.0     0.7768582315       -2.8237634867        1.0100851308
 H           1.0     1.7997837588       -3.1006664496       -0.7648237024
 H           1.0     0.6728268674       -4.4568069812        2.2683394406
 H           1.0    -1.2109465574       -0.3773034177        3.4760586447

          INTERNUCLEAR DISTANCES (ANGS.)
          ------------------------------

                1 C          2 C          3 H          4 H          5 H     

   1 C       0.0000000    1.3574283 *  2.1178436 *  1.0939185 *  1.0923215 *
   2 C       1.3574283 *  0.0000000    1.0968434 *  2.1480857 *  2.1434783 *
   3 H       2.1178436 *  1.0968434 *  0.0000000    3.1066949    2.4621177 *
   4 H       1.0939185 *  2.1480857 *  3.1066949    0.0000000    1.8565944 *
   5 H       1.0923215 *  2.1434783 *  2.4621177 *  1.8565944 *  0.0000000  
   6 C       2.5306511 *  1.4917346 *  2.2035226 *  2.8136646 *  3.5225008  
   7 C       3.1112446    2.5306159 *  3.4167061    2.9398150 *  4.1822675  
   8 H       2.9397296 *  2.8135546 *  3.8024224    2.5079604 *  3.9522304  
   9 H       4.1822797    3.5224960    4.3164404    3.9523165    5.2607803  
  10 H       3.4167298    2.2035197 *  2.5030301 *  3.8025264    4.3164233  

                6 C          7 C          8 H          9 H         10 H     

   1 C       2.5306511 *  3.1112446    2.9397296 *  4.1822797    3.4167298  
   2 C       1.4917346 *  2.5306159 *  2.8135546 *  3.5224960    2.2035197 *
   3 H       2.2035226 *  3.4167061    3.8024224    4.3164404    2.5030301 *
   4 H       2.8136646 *  2.9398150 *  2.5079604 *  3.9523165    3.8025264  
   5 H       3.5225008    4.1822675    3.9522304    5.2607803    4.3164233  
   6 C       0.0000000    1.3574291 *  2.1480581 *  2.1435083 *  1.0968365 *
   7 C       1.3574291 *  0.0000000    1.0939200 *  1.0923195 *  2.1178702 *
   8 H       2.1480581 *  1.0939200 *  0.0000000    1.8565924 *  3.1066935  
   9 H       2.1435083 *  1.0923195 *  1.8565924 *  0.0000000    2.4622122 *
  10 H       1.0968365 *  2.1178702 *  3.1066935    2.4622122 *  0.0000000  

  * ... LESS THAN  3.000


     ATOMIC BASIS SET
     ----------------
 THE CONTRACTED PRIMITIVE FUNCTIONS HAVE BEEN UNNORMALIZED
 THE CONTRACTED BASIS FUNCTIONS ARE NOW NORMALIZED TO UNITY

  SHELL TYPE  PRIMITIVE        EXPONENT          CONTRACTION COEFFICIENT(S)

 C         

      1   S       1          6665.0000000    0.000691583963
      1   S       2          1000.0000000    0.005325796153
      1   S       3           228.0000000    0.027060721042
      1   S       4            64.7100000    0.101656846141
      1   S       5            21.0600000    0.274574823617
      1   S       6             7.4950000    0.448294318924
      1   S       7             2.7970000    0.284902610715
      1   S       8             0.5215000    0.015194859206

      2   S       9          6665.0000000   -0.000293269653
      2   S      10          1000.0000000   -0.002318035474
      2   S      11           228.0000000   -0.011499786039
      2   S      12            64.7100000   -0.046826727010
      2   S      13            21.0600000   -0.128466168750
      2   S      14             7.4950000   -0.301266272463
      2   S      15             2.7970000   -0.255630702330
      2   S      16             0.5215000    1.093793361012

      3   S      17             0.1596000    1.000000000000

      4   P      18             9.4390000    0.056979251590
      4   P      19             2.0020000    0.313207211501
      4   P      20             0.5456000    0.760376741738

      5   P      21             0.1517000    1.000000000000

      6   D      22             0.5500000    1.000000000000

      7   S      23             0.0469000    1.000000000000

      8   P      24             0.0404100    1.000000000000

      9   D      25             0.1510000    1.000000000000

 C         

     10   S      26          6665.0000000    0.000691583963
     10   S      27          1000.0000000    0.005325796153
     10   S      28           228.0000000    0.027060721042
     10   S      29            64.7100000    0.101656846141
     10   S      30            21.0600000    0.274574823617
     10   S      31             7.4950000    0.448294318924
     10   S      32             2.7970000    0.284902610715
     10   S      33             0.5215000    0.015194859206

     11   S      34          6665.0000000   -0.000293269653
     11   S      35          1000.0000000   -0.002318035474
     11   S      36           228.0000000   -0.011499786039
     11   S      37            64.7100000   -0.046826727010
     11   S      38            21.0600000   -0.128466168750
     11   S      39             7.4950000   -0.301266272463
     11   S      40             2.7970000   -0.255630702330
     11   S      41             0.5215000    1.093793361012

     12   S      42             0.1596000    1.000000000000

     13   P      43             9.4390000    0.056979251590
     13   P      44             2.0020000    0.313207211501
     13   P      45             0.5456000    0.760376741738

     14   P      46             0.1517000    1.000000000000

     15   D      47             0.5500000    1.000000000000

     16   S      48             0.0469000    1.000000000000

     17   P      49             0.0404100    1.000000000000

     18   D      50             0.1510000    1.000000000000

 H         

     19   S      51            13.0100000    0.033498726390
     19   S      52             1.9620000    0.234800801174
     19   S      53             0.4446000    0.813682957883

     20   S      54             0.1220000    1.000000000000

     21   P      55             0.7270000    1.000000000000

     22   S      56             0.0297400    1.000000000000

     23   P      57             0.1410000    1.000000000000

 H         

     24   S      58            13.0100000    0.033498726390
     24   S      59             1.9620000    0.234800801174
     24   S      60             0.4446000    0.813682957883

     25   S      61             0.1220000    1.000000000000

     26   P      62             0.7270000    1.000000000000

     27   S      63             0.0297400    1.000000000000

     28   P      64             0.1410000    1.000000000000

 H         

     29   S      65            13.0100000    0.033498726390
     29   S      66             1.9620000    0.234800801174
     29   S      67             0.4446000    0.813682957883

     30   S      68             0.1220000    1.000000000000

     31   P      69             0.7270000    1.000000000000

     32   S      70             0.0297400    1.000000000000

     33   P      71             0.1410000    1.000000000000

 C         

     34   S      72          6665.0000000    0.000691583963
     34   S      73          1000.0000000    0.005325796153
     34   S      74           228.0000000    0.027060721042
     34   S      75            64.7100000    0.101656846141
     34   S      76            21.0600000    0.274574823617
     34   S      77             7.4950000    0.448294318924
     34   S      78             2.7970000    0.284902610715
     34   S      79             0.5215000    0.015194859206

     35   S      80          6665.0000000   -0.000293269653
     35   S      81          1000.0000000   -0.002318035474
     35   S      82           228.0000000   -0.011499786039
     35   S      83            64.7100000   -0.046826727010
     35   S      84            21.0600000   -0.128466168750
     35   S      85             7.4950000   -0.301266272463
     35   S      86             2.7970000   -0.255630702330
     35   S      87             0.5215000    1.093793361012

     36   S      88             0.1596000    1.000000000000

     37   P      89             9.4390000    0.056979251590
     37   P      90             2.0020000    0.313207211501
     37   P      91             0.5456000    0.760376741738

     38   P      92             0.1517000    1.000000000000

     39   D      93             0.5500000    1.000000000000

     40   S      94             0.0469000    1.000000000000

     41   P      95             0.0404100    1.000000000000

     42   D      96             0.1510000    1.000000000000

 C         

     43   S      97          6665.0000000    0.000691583963
     43   S      98          1000.0000000    0.005325796153
     43   S      99           228.0000000    0.027060721042
     43   S     100            64.7100000    0.101656846141
     43   S     101            21.0600000    0.274574823617
     43   S     102             7.4950000    0.448294318924
     43   S     103             2.7970000    0.284902610715
     43   S     104             0.5215000    0.015194859206

     44   S     105          6665.0000000   -0.000293269653
     44   S     106          1000.0000000   -0.002318035474
     44   S     107           228.0000000   -0.011499786039
     44   S     108            64.7100000   -0.046826727010
     44   S     109            21.0600000   -0.128466168750
     44   S     110             7.4950000   -0.301266272463
     44   S     111             2.7970000   -0.255630702330
     44   S     112             0.5215000    1.093793361012

     45   S     113             0.1596000    1.000000000000

     46   P     114             9.4390000    0.056979251590
     46   P     115             2.0020000    0.313207211501
     46   P     116             0.5456000    0.760376741738

     47   P     117             0.1517000    1.000000000000

     48   D     118             0.5500000    1.000000000000

     49   S     119             0.0469000    1.000000000000

     50   P     120             0.0404100    1.000000000000

     51   D     121             0.1510000    1.000000000000

 H         

     52   S     122            13.0100000    0.033498726390
     52   S     123             1.9620000    0.234800801174
     52   S     124             0.4446000    0.813682957883

     53   S     125             0.1220000    1.000000000000

     54   P     126             0.7270000    1.000000000000

     55   S     127             0.0297400    1.000000000000

     56   P     128             0.1410000    1.000000000000

 H         

     57   S     129            13.0100000    0.033498726390
     57   S     130             1.9620000    0.234800801174
     57   S     131             0.4446000    0.813682957883

     58   S     132             0.1220000    1.000000000000

     59   P     133             0.7270000    1.000000000000

     60   S     134             0.0297400    1.000000000000

     61   P     135             0.1410000    1.000000000000

 H         

     62   S     136            13.0100000    0.033498726390
     62   S     137             1.9620000    0.234800801174
     62   S     138             0.4446000    0.813682957883

     63   S     139             0.1220000    1.000000000000

     64   P     140             0.7270000    1.000000000000

     65   S     141             0.0297400    1.000000000000

     66   P     142             0.1410000    1.000000000000

 TOTAL NUMBER OF BASIS SET SHELLS             =   66
 NUMBER OF CARTESIAN GAUSSIAN BASIS FUNCTIONS =  154
 NOTE: THIS RUN WILL RESTRICT THE MO VARIATION SPACE TO SPHERICAL HARMONICS.
 THE NUMBER OF ORBITALS KEPT IN THE VARIATIONAL SPACE WILL BE PRINTED LATER.
 NUMBER OF ELECTRONS                          =   30
 CHARGE OF MOLECULE                           =    0
 SPIN MULTIPLICITY                            =    1
 NUMBER OF OCCUPIED ORBITALS (ALPHA)          =   15
 NUMBER OF OCCUPIED ORBITALS (BETA )          =   15
 TOTAL NUMBER OF ATOMS                        =   10
 THE NUCLEAR REPULSION ENERGY IS      103.4760914696

 SELECTED MURRAY-HANDY-LAMING RADIAL GRID

 LEGACY BECKE'S FUZZY CELL METHOD

 SELECTED ORIGINAL BECKE'S PARTITION FUNCTION

     LEBEDEV GRID-BASED DFT OPTIONS
     ------------------------------
     DFTTYP=B3LYP   
     NRAD  =      96     NLEB  =     302
     NRAD0 =      24     NLEB0 =     110
     SWOFF =    5.00E-03 (PURE SCF -> DFT)
     SWITCH=    3.00E-04 (COARSE -> TIGHT GRID)
     THRESH=    0.00E+00 GTHRE=    1.00E+00

 GRIMME'S EMPIRICAL DISPERSION CORRECTION= F

     $CONTRL OPTIONS
     ---------------
 SCFTYP=UHF          RUNTYP=LMOEDA       EXETYP=RUN     
 MPLEVL=       0     CITYP =NONE         CCTYP =NONE         VBTYP =NONE    
 DFTTYP=B3LYP        TDDFT =NONE    
 MULT  =       1     ICHARG=       0     NZVAR =       0     COORD =UNIQUE  
 PP    =NONE         RELWFN=NONE         LOCAL =NONE         NUMGRD=       F
 ISPHER=       1     NOSYM =       0     MAXIT =      30     UNITS =ANGS    
 PLTORB=       F     MOLPLT=       F     AIMPAC=       F     FRIEND=        
 NPRINT=       7     IREST =       0     GEOM  =INPUT   
 NORMF =       0     NORMP =       0     ITOL  =      20     ICUT  =       9
 INTTYP=BEST         GRDTYP=BEST         QMTTOL= 1.0E-06

     $SYSTEM OPTIONS
     ---------------
  REPLICATED MEMORY=   150000000 WORDS (ON EVERY NODE).
 DISTRIBUTED MEMDDI=         150 MILLION WORDS IN AGGREGATE,
 MEMDDI DISTRIBUTED OVER  16 PROCESSORS IS     9375000 WORDS/PROCESSOR.
 TOTAL MEMORY REQUESTED ON EACH PROCESSOR=   159375000 WORDS.
 TIMLIM=      525600.00 MINUTES, OR     365.0 DAYS.
 PARALL= T  BALTYP=  DLB     KDIAG=    0  COREFL= F
 MXSEQ2=     300 MXSEQ3=     150  mem10=         0  mem22=         0

 Using Gaussians for PCM contribution to MEP, params: 0.10000E+01 0.10000E-07

          ----------------
          PROPERTIES INPUT
          ----------------

     MOMENTS            FIELD           POTENTIAL          DENSITY
 IEMOM =       1   IEFLD =       0   IEPOT =       0   IEDEN =       0
 WHERE =COMASS     WHERE =NUCLEI     WHERE =NUCLEI     WHERE =NUCLEI  
 OUTPUT=BOTH       OUTPUT=BOTH       OUTPUT=BOTH       OUTPUT=BOTH    
 IEMINT=       0   IEFINT=       0                     IEDINT=       0
                                                       MORB  =       0
          EXTRAPOLATION IN EFFECT
          DIIS IN EFFECT
          DIIS or SOSCF will be reset if energy rises
 ORBITAL PRINTING OPTION: NPREO=     1   154     2     1

     -------------------------------
     INTEGRAL TRANSFORMATION OPTIONS
     -------------------------------
     NWORD  =            0
     CUTOFF = 1.0E-09     MPTRAN =       0
     DIRTRF =       F     AOINTS =DUP     

          -----------------------------
          LOCALIZATION INPUT PARAMETERS
          -----------------------------
           LOCAL=RUEDNBRG      NOUTA=       0
          PRTLOC=       F      NOUTB=       0
          MAXLOC=     250     CVGLOC=1.00E-06
           FCORE=       F     SYMLOC=       F
          MOIDON=       F     EDCOMP=       F
          DIPDCM=       F      NPROT=       0
          QADDCM=       F     DEPRNT=       F
          POLNUM=       F     ORIENT=       F
          POLDYN=       F      VMTOL=1.50E-01
          NPRDTL=       2     IBOYAL=       1

          ----------------------
          INTEGRAL INPUT OPTIONS
          ----------------------
 NOPK  =       1 NORDER=       0 SCHWRZ=       T

     ------------------------------------------
     THE POINT GROUP IS C1 , NAXIS= 0, ORDER= 1
     ------------------------------------------

 -- VARIATIONAL SPACE WILL BE RESTRICTED TO PURE SPHERICAL HARMONICS ONLY --
 AFTER EXCLUDING CONTAMINANT COMBINATIONS FROM THE CARTESIAN GAUSSIAN BASIS
 SET, THE NUMBER OF SPHERICAL HARMONICS KEPT IN THE VARIATION SPACE IS  146

     DIMENSIONS OF THE SYMMETRY SUBSPACES ARE
 A   =  146

 ..... DONE SETTING UP THE RUN .....
 CPU     0: STEP CPU TIME=     0.02 TOTAL CPU TIME=          0.0 (      0.0 MIN)
 TOTAL WALL CLOCK TIME=          0.0 SECONDS, CPU UTILIZATION IS    72.96%

          --------------
          GKSEDA OPTIONS
          --------------
          NMOL  =       2          EDATYP=GKS     
          SUPBAS=       T          RDVECM=       F          ITRTN =       T

 *******************
 GKSEDA IS BEGINNING
 *******************

 NMOL =  2

 MONOMER     ATOM   CHARGE ELECTRON MULTIPLE
 -------------------------------------------
       1        5        0       15        2
       2        5        0       15       -2
 -------------------------------------------

 SAVING MOL INFO REQUIRES    598670 WORDS OF MEMORY.

          ********************
          1 ELECTRON INTEGRALS
          ********************
 ...... END OF ONE-ELECTRON INTEGRALS ......
 CPU     0: STEP CPU TIME=     0.01 TOTAL CPU TIME=          0.0 (      0.0 MIN)
 TOTAL WALL CLOCK TIME=          0.0 SECONDS, CPU UTILIZATION IS    76.42%

          -------------
          GUESS OPTIONS
          -------------
          GUESS =HUCKEL            NORB  =       0          NORDER=       0
          MIX   =       F          PRTMO =       F          PUNMO =       F
          TOLZ  = 1.0E-08          TOLE  = 1.0E-05
          SYMDEN=       F          PURIFY=       F

 INITIAL GUESS ORBITALS GENERATED BY HUCKEL   ROUTINE.
 HUCKEL GUESS REQUIRES    180842 WORDS.

 STATISTICS FOR GENERATION OF SYMMETRY ORBITAL -Q- MATRIX
 NUMBER OF CARTESIAN ATOMIC ORBITALS=        154
 NUMBER OF SPHERICAL CONTAMINANTS DROPPED=     8
 NUMBER OF LINEARLY DEPENDENT MOS DROPPED=     0
 TOTAL NUMBER OF MOS IN VARIATION SPACE=     146

 SYMMETRIES FOR INITIAL GUESS ORBITALS FOLLOW.  ALPHA SET(S).
    15 ORBITALS ARE OCCUPIED (    4 CORE ORBITALS).
     5=A        6=A        7=A        8=A        9=A       10=A       11=A   
    12=A       13=A       14=A       15=A       16=A       17=A       18=A   
    19=A       20=A       21=A       22=A       23=A       24=A       25=A   

 SYMMETRIES FOR INITIAL GUESS ORBITALS FOLLOW.   BETA SET(S).
    15 ORBITALS ARE OCCUPIED (    4 CORE ORBITALS).
     5=A        6=A        7=A        8=A        9=A       10=A       11=A   
    12=A       13=A       14=A       15=A       16=A       17=A       18=A   
    19=A       20=A       21=A       22=A       23=A       24=A       25=A   
 ...... END OF INITIAL ORBITAL SELECTION ......
 CPU     0: STEP CPU TIME=     0.01 TOTAL CPU TIME=          0.0 (      0.0 MIN)
 TOTAL WALL CLOCK TIME=          0.1 SECONDS, CPU UTILIZATION IS    82.20%

          -------------------------
          MONOMER  1 WITH OWN BASIS
          -------------------------

     ------------------------------------------
     THE POINT GROUP IS C1 , NAXIS= 0, ORDER= 1
     ------------------------------------------

 -- VARIATIONAL SPACE WILL BE RESTRICTED TO PURE SPHERICAL HARMONICS ONLY --
 AFTER EXCLUDING CONTAMINANT COMBINATIONS FROM THE CARTESIAN GAUSSIAN BASIS
 SET, THE NUMBER OF SPHERICAL HARMONICS KEPT IN THE VARIATION SPACE IS   73

     DIMENSIONS OF THE SYMMETRY SUBSPACES ARE
 A   =   73

          ********************
          1 ELECTRON INTEGRALS
          ********************
 ...... END OF ONE-ELECTRON INTEGRALS ......
 CPU     0: STEP CPU TIME=     0.01 TOTAL CPU TIME=          0.0 (      0.0 MIN)
 TOTAL WALL CLOCK TIME=          0.1 SECONDS, CPU UTILIZATION IS    79.55%

          -------------
          GUESS OPTIONS
          -------------
          GUESS =HUCKEL            NORB  =       0          NORDER=       0
          MIX   =       F          PRTMO =       F          PUNMO =       F
          TOLZ  = 1.0E-08          TOLE  = 1.0E-05
          SYMDEN=       F          PURIFY=       F

 INITIAL GUESS ORBITALS GENERATED BY HUCKEL   ROUTINE.
 HUCKEL GUESS REQUIRES     47410 WORDS.

 STATISTICS FOR GENERATION OF SYMMETRY ORBITAL -Q- MATRIX
 NUMBER OF CARTESIAN ATOMIC ORBITALS=         77
 NUMBER OF SPHERICAL CONTAMINANTS DROPPED=     4
 NUMBER OF LINEARLY DEPENDENT MOS DROPPED=     0
 TOTAL NUMBER OF MOS IN VARIATION SPACE=      73

 SYMMETRIES FOR INITIAL GUESS ORBITALS FOLLOW.  ALPHA SET(S).
     8 ORBITALS ARE OCCUPIED (    2 CORE ORBITALS).
     3=A        4=A        5=A        6=A        7=A        8=A        9=A   
    10=A       11=A       12=A       13=A       14=A       15=A       16=A   
    17=A       18=A   

 SYMMETRIES FOR INITIAL GUESS ORBITALS FOLLOW.   BETA SET(S).
     7 ORBITALS ARE OCCUPIED (    2 CORE ORBITALS).
     3=A        4=A        5=A        6=A        7=A        8=A        9=A   
    10=A       11=A       12=A       13=A       14=A       15=A       16=A   
    17=A   
 ...... END OF INITIAL ORBITAL SELECTION ......
 CPU     0: STEP CPU TIME=     0.00 TOTAL CPU TIME=          0.1 (      0.0 MIN)
 TOTAL WALL CLOCK TIME=          0.1 SECONDS, CPU UTILIZATION IS    80.50%

                    ----------------------
                    AO INTEGRAL TECHNOLOGY
                    ----------------------
     S,P,L SHELL ROTATED AXIS INTEGRALS, REPROGRAMMED BY
        KAZUYA ISHIMURA (IMS) AND JOSE SIERRA (SYNSTAR).
     S,P,D,L SHELL ROTATED AXIS INTEGRALS PROGRAMMED BY
        KAZUYA ISHIMURA (INSTITUTE FOR MOLECULAR SCIENCE).
     S,P,D,F,G SHELL TO TOTAL QUARTET ANGULAR MOMENTUM SUM 5,
        ERIC PROGRAM BY GRAHAM FLETCHER (ELORET AND NASA ADVANCED
        SUPERCOMPUTING DIVISION, AMES RESEARCH CENTER).
     S,P,D,F,G,L SHELL GENERAL RYS QUADRATURE PROGRAMMED BY
        MICHEL DUPUIS (PACIFIC NORTHWEST NATIONAL LABORATORY).

          --------------------
          2 ELECTRON INTEGRALS
          --------------------

 THE -PK- OPTION IS OFF, THE INTEGRALS ARE NOT IN SUPERMATRIX FORM.
 STORING   15000 INTEGRALS/RECORD ON DISK, USING 12 BYTES/INTEGRAL.
 TWO ELECTRON INTEGRAL EVALUATION REQUIRES   90957 WORDS OF MEMORY.
 SCHWARZ INEQUALITY OVERHEAD:      3003 INTEGRALS, T=        0.00
 II,JST,KST,LST =  1  1  1  1 NREC =         1 INTLOC =    1
 II,JST,KST,LST =  2  1  1  1 NREC =         1 INTLOC =    1
 II,JST,KST,LST =  3  1  1  1 NREC =         1 INTLOC =    1
 II,JST,KST,LST =  4  1  1  1 NREC =         1 INTLOC =    1
 II,JST,KST,LST =  5  1  1  1 NREC =         1 INTLOC =    1
 II,JST,KST,LST =  6  1  1  1 NREC =         1 INTLOC =    1
 II,JST,KST,LST =  7  1  1  1 NREC =         1 INTLOC =    4
 II,JST,KST,LST =  8  1  1  1 NREC =         1 INTLOC =  250
 II,JST,KST,LST =  9  1  1  1 NREC =         1 INTLOC =  250
 II,JST,KST,LST = 10  1  1  1 NREC =         1 INTLOC =  250
 II,JST,KST,LST = 11  1  1  1 NREC =         1 INTLOC =  517
 II,JST,KST,LST = 12  1  1  1 NREC =         1 INTLOC =  517
 II,JST,KST,LST = 13  1  1  1 NREC =         1 INTLOC =  517
 II,JST,KST,LST = 14  1  1  1 NREC =         1 INTLOC =  517
 II,JST,KST,LST = 15  1  1  1 NREC =         1 INTLOC = 1625
 II,JST,KST,LST = 16  1  1  1 NREC =         1 INTLOC =11292
 II,JST,KST,LST = 17  1  1  1 NREC =         1 INTLOC =11292
 II,JST,KST,LST = 18  1  1  1 NREC =         1 INTLOC =11292
 II,JST,KST,LST = 19  1  1  1 NREC =         1 INTLOC =13206
 II,JST,KST,LST = 20  1  1  1 NREC =         1 INTLOC =14286
 II,JST,KST,LST = 21  1  1  1 NREC =         2 INTLOC = 8238
 II,JST,KST,LST = 22  1  1  1 NREC =         5 INTLOC = 5557
 II,JST,KST,LST = 23  1  1  1 NREC =         5 INTLOC = 5557
 II,JST,KST,LST = 24  1  1  1 NREC =         8 INTLOC = 3870
 II,JST,KST,LST = 25  1  1  1 NREC =         8 INTLOC = 7466
 II,JST,KST,LST = 26  1  1  1 NREC =         9 INTLOC =12656
 II,JST,KST,LST = 27  1  1  1 NREC =        10 INTLOC =14677
 II,JST,KST,LST = 28  1  1  1 NREC =        12 INTLOC = 7056
 II,JST,KST,LST = 29  1  1  1 NREC =        16 INTLOC =  861
 II,JST,KST,LST = 30  1  1  1 NREC =        17 INTLOC = 9994
 II,JST,KST,LST = 31  1  1  1 NREC =        17 INTLOC = 9994
 II,JST,KST,LST = 32  1  1  1 NREC =        19 INTLOC = 9621
 II,JST,KST,LST = 33  1  1  1 NREC =        21 INTLOC =11471
 SCHWARZ INEQUALITY TEST SKIPPED           0 INTEGRAL BLOCKS.
 TOTAL NUMBER OF NONZERO TWO-ELECTRON INTEGRALS =             3901198
        270 INTEGRAL RECORDS WERE STORED ON DISK FILE  8.
  ...... END OF TWO-ELECTRON INTEGRALS .....
 CPU     0: STEP CPU TIME=     0.03 TOTAL CPU TIME=          0.1 (      0.0 MIN)
 TOTAL WALL CLOCK TIME=          0.1 SECONDS, CPU UTILIZATION IS    83.58%

          ---------------------------
              U-B3LYP SCF CALCULATION
          ---------------------------

     NUCLEAR ENERGY =        27.8669204839
     MAXIT = 30     NPUNCH=  2     MULT=  2
     EXTRAP=T  DAMP=F  SHIFT=F  RSTRCT=F  DIIS=T  SOSCF=T
         DENSITY MATRIX CONVERGENCE THRESHOLD=  1.00E-05
     COARSE -> FINE DFT GRID SWITCH THRESHOLD=  3.00E-04 (SWITCH IN $DFT)
                   HF -> DFT SWITCH THRESHOLD=  5.00E-03 (SWOFF IN $DFT)
     SOSCF WILL OPTIMIZE     520 ALPHA AND     462 BETA ROTATION ANGLES.
     SOGTOL= 2.500E-01
     MEMORY REQUIRED FOR UHF/ROHF ITERS=    298732 WORDS.

     EXCHANGE FUNCTIONAL   =B88&HFX   
     CORRELATION FUNCTIONAL=LYP88&VWN5
     DFT THRESHOLD         =.690E-08
     GRID CHANGE THRESHOLD =.300E-03
 FOR AN EULER-MACLAURIN QUADRATURE USING  96 RADIAL POINTS:
 SMALLEST GAUSSIAN PRIMITIVE EXPONENT=        0.0297400000 OF TYPE -S-
 ON ATOM NUMBER   3 HAS RADIAL NORMALIZATION=  1.000000
  LARGEST GAUSSIAN PRIMITIVE EXPONENT=     6665.0000000000 OF TYPE -S-
 ON ATOM NUMBER   1 HAS RADIAL NORMALIZATION=  1.000000
 DFT IS SWITCHED OFF, PERFORMING PURE SCF UNTIL SWOFF THRESHOLD IS REACHED.

 ITER EX      TOTAL ENERGY        E CHANGE  DENSITY CHANGE    DIIS ERROR
          * * *   INITIATING DIIS PROCEDURE   * * *
   1  0      -77.1741909583   -77.1741909583   0.500661317   0.356028486
   2  1      -77.3682981081    -0.1941071497   0.154079545   0.054239358
   3  2      -77.3843358423    -0.0160377342   0.031242564   0.026073329
   4  3      -77.3887590140    -0.0044231717   0.022160348   0.011291491
   5  4      -77.3901523548    -0.0013933408   0.012953848   0.008598788
   6  5      -77.3908068287    -0.0006544739   0.024380379   0.008600929
   7  6      -77.3918790680    -0.0010722393   0.063594358   0.008361064
   8  7      -77.3942539578    -0.0023748898   0.114883161   0.006548823
   9  8      -77.3958408142    -0.0015868564   0.071548960   0.002213438
  10  9      -77.3953856860     0.0004551282   0.043964927   0.004262794
  11 10      -77.3959258861    -0.0005402001   0.007827415   0.000779027
  12 11      -77.3959425888    -0.0000167027   0.000333371   0.000092050
 CONVERGED TO SWOFF, SO DFT CALCULATION IS NOW SWITCHED ON.
          * * *   INITIATING DIIS PROCEDURE   * * *
  13 12      -77.8296874628    -0.4337448740   0.395531908   0.062136463
  14 13      -77.8463059935    -0.0166185307   0.062763296   0.016765499
  15 14      -77.8489945823    -0.0026885889   0.024644217   0.011968084
  16 15      -77.8504543083    -0.0014597259   0.050707448   0.007392420
  17 16      -77.8514391178    -0.0009848096   0.009209508   0.003429614
  18 17      -77.8515223724    -0.0000832545   0.006035614   0.001416797
  19 18      -77.8515423923    -0.0000200199   0.002044631   0.000280201
         SWDIIS THRESHOLD HAS BEEN REACHED: SWITCHING DIIS OFF.
          ---------------START SECOND ORDER SCF---------------
  20 19      -77.8515435686    -0.0000011762   0.000137775   0.000022560
  21 20      -77.8515435812    -0.0000000126   0.000156105   0.000023601
  22 21      -77.8515435819    -0.0000000008   0.000065555   0.000021484
  23 22      -77.8515435862    -0.0000000043   0.000008886   0.000002409
  24 23      -77.8515435864    -0.0000000001   0.000012250   0.000001963

          ----------------
          ENERGY CONVERGED
          ----------------
     TIME TO FORM FOCK OPERATORS=       1.2 SECONDS (       0.1 SEC/ITER)
     TIME TO SOLVE SCF EQUATIONS=       0.1 SECONDS (       0.0 SEC/ITER)

 FINAL U-B3LYP ENERGY IS      -77.8515435864 AFTER  24 ITERATIONS
 DFT EXCHANGE + CORRELATION ENERGY =        -9.5245428838
 TOTAL ELECTRON NUMBER             =        14.9999944711

          --------------------
          SPIN SZ   =    0.500
          S-SQUARED =    0.764
          --------------------

  ----- ALPHA SET ----- 

          ------------
          EIGENVECTORS
          ------------

                      1          2          3          4          5
                  -10.2294   -10.2020    -0.7670    -0.5782    -0.4643
                     A          A          A          A          A   
    1  C  1  S    0.011967   1.009647  -0.019630   0.011321  -0.002217
    2  C  1  S   -0.001525   0.022147   0.316129  -0.227476   0.000038
    3  C  1  S    0.040191  -0.073252   0.096376  -0.322989  -0.034685
    4  C  1  X   -0.000017  -0.000015  -0.000199   0.001967   0.009946
    5  C  1  Y   -0.000025  -0.000002   0.008230   0.031187   0.341482
    6  C  1  Z   -0.000999  -0.000357   0.110404   0.207715  -0.208459
    7  C  1  X    0.000118   0.000099   0.000669  -0.000361  -0.000803
    8  C  1  Y   -0.001262  -0.000311   0.023628   0.028424  -0.015348
    9  C  1  Z    0.038752  -0.008916  -0.028567  -0.242232   0.041036
   10  C  1 XX    0.000208  -0.001623  -0.006318   0.001478  -0.001736
   11  C  1 YY    0.000858   0.000832  -0.007530  -0.011262   0.008611
   12  C  1 ZZ   -0.001067   0.000791   0.013848   0.009784  -0.006875
   13  C  1 XY    0.000033   0.000102  -0.000080  -0.000538   0.000200
   14  C  1 XZ    0.000014   0.000023  -0.000005  -0.000140  -0.000337
   15  C  1 YZ    0.000469   0.000066   0.000231   0.002355  -0.006023
   16  C  1  S    0.015193  -0.033824   0.016318   0.137912  -0.061510
   17  C  1  X    0.000061   0.000051  -0.000336  -0.000008  -0.002084
   18  C  1  Y    0.000737   0.000791  -0.003693   0.008883  -0.058446
   19  C  1  Z    0.006198  -0.003657  -0.002005   0.011560  -0.009408
   20  C  1 XX   -0.002139   0.004866   0.006203  -0.007047  -0.006554
   21  C  1 YY   -0.004500   0.001517  -0.008159   0.105920  -0.045068
   22  C  1 ZZ    0.006639  -0.006382   0.001956  -0.098873   0.051622
   23  C  1 XY   -0.000084  -0.000125  -0.001094   0.003947  -0.001560
   24  C  1 XZ   -0.000115  -0.000092   0.000956   0.000361   0.004029
   25  C  1 YZ   -0.003071  -0.001103   0.024642   0.020827   0.104806
   26  C  2  S    1.009987  -0.013544  -0.017054  -0.006402  -0.000337
   27  C  2  S    0.022721  -0.001363   0.307177   0.268827  -0.071025
   28  C  2  S   -0.089986   0.024440   0.251914   0.492505  -0.243229
   29  C  2  X   -0.000011  -0.000005  -0.000293   0.000306   0.005065
   30  C  2  Y    0.000907   0.000107   0.024880   0.097802   0.256253
   31  C  2  Z   -0.000220   0.000907  -0.128016   0.118052   0.162390
   32  C  2  X    0.000053   0.000052  -0.001187  -0.001014  -0.000366
   33  C  2  Y   -0.003374  -0.001151  -0.057661  -0.094803   0.009029
   34  C  2  Z    0.030851  -0.016838  -0.090578  -0.219806   0.064498
   35  C  2 XX   -0.000844   0.000671  -0.011408  -0.001409  -0.000483
   36  C  2 YY    0.000531   0.000641  -0.003959   0.009836   0.005815
   37  C  2 ZZ    0.000313  -0.001312   0.015367  -0.008428  -0.005332
   38  C  2 XY    0.000021  -0.000006   0.000373   0.000260  -0.000101
   39  C  2 XZ    0.000001   0.000006  -0.000167  -0.000284  -0.000400
   40  C  2 YZ    0.000874   0.000047  -0.006203  -0.001648  -0.009702
   41  C  2  S   -0.028912   0.019686  -0.018978  -0.117656   0.023488
   42  C  2  X   -0.000028  -0.000016   0.000215  -0.000294   0.000688
   43  C  2  Y   -0.001397  -0.001323  -0.000432  -0.026855   0.018118
   44  C  2  Z    0.004253  -0.005726   0.006475   0.004918  -0.013535
   45  C  2 XX    0.005978  -0.001057  -0.006701   0.006225   0.001286
   46  C  2 YY    0.004259  -0.001763  -0.017948  -0.060090  -0.008107
   47  C  2 ZZ   -0.010237   0.002820   0.024649   0.053865   0.006820
   48  C  2 XY   -0.000043  -0.000025   0.000477  -0.001189   0.000111
   49  C  2 XZ   -0.000060  -0.000043   0.000544  -0.000453   0.000873
   50  C  2 YZ   -0.004173  -0.001160   0.008735  -0.020953   0.013701
   51  H  3  S   -0.000651  -0.000111   0.124949   0.258123   0.194372
   52  H  3  S    0.021372   0.007232   0.065276   0.271954   0.107122
   53  H  3  X    0.000011   0.000004  -0.000091   0.000020   0.000158
   54  H  3  Y    0.001720   0.000000  -0.012886  -0.016863  -0.005933
   55  H  3  Z    0.000713   0.000177  -0.011221  -0.009807  -0.005216
   56  H  3  S    0.001276   0.001907   0.003778   0.025933   0.010453
   57  H  3  X   -0.000021   0.000000  -0.000278   0.000528  -0.000161
   58  H  3  Y   -0.007722  -0.002244  -0.007804  -0.042568  -0.011649
   59  H  3  Z   -0.002024  -0.000906  -0.017453  -0.029196  -0.010403
   60  H  4  S   -0.000337  -0.000858   0.116342  -0.229877  -0.141265
   61  H  4  S    0.017777   0.021899  -0.010831  -0.219286  -0.197323
   62  H  4  X   -0.000009  -0.000075   0.000637  -0.000855  -0.000184
   63  H  4  Y   -0.000207  -0.001547   0.014275  -0.016906   0.000676
   64  H  4  Z   -0.000621  -0.001029   0.012557  -0.005490  -0.009982
   65  H  4  S    0.001752   0.001989  -0.000036  -0.012952  -0.041475
   66  H  4  X    0.000222   0.000322  -0.000535  -0.001916  -0.002482
   67  H  4  Y    0.004812   0.006770  -0.009250  -0.020623  -0.049002
   68  H  4  Z    0.002489   0.003039   0.008694  -0.034540   0.011344
   69  H  5  S   -0.000196  -0.000911   0.126818  -0.203154   0.340520
   70  H  5  S    0.009366   0.018970   0.015865  -0.225213   0.435799
   71  H  5  X   -0.000008   0.000034  -0.000392   0.000503  -0.000256
   72  H  5  Y   -0.000073   0.001517  -0.014544   0.016663  -0.010197
   73  H  5  Z   -0.000425  -0.000938   0.011259  -0.004883   0.005032
   74  H  5  S    0.001717   0.001167   0.002168  -0.013848   0.045179
   75  H  5  X   -0.000087  -0.000171   0.000440   0.000570  -0.001361
   76  H  5  Y   -0.002369  -0.006005   0.000243   0.020154  -0.072954
   77  H  5  Z    0.001966   0.002941  -0.001845  -0.053878   0.040731

                      6          7          8          9         10
                   -0.4136    -0.2850    -0.2739    -0.0199    -0.0019
                     A          A          A          A          A   
    1  C  1  S   -0.000013  -0.000108   0.000544   0.000047  -0.002956
    2  C  1  S   -0.037011  -0.004269   0.050194   0.003266   0.084618
    3  C  1  S   -0.168767  -0.001052   0.024715   0.007075   0.344774
    4  C  1  X   -0.013688   0.390346   0.031909   0.403780  -0.000424
    5  C  1  Y   -0.253949  -0.002926  -0.136437  -0.015401   0.030022
    6  C  1  Z   -0.320147  -0.016267   0.112847  -0.001727  -0.096022
    7  C  1  X    0.000626   0.214837   0.021539   0.338597  -0.001762
    8  C  1  Y    0.061145  -0.011384   0.032444  -0.011702   0.041757
    9  C  1  Z   -0.090791  -0.000222  -0.020883  -0.000908  -0.283674
   10  C  1 XX   -0.001148  -0.000037   0.000472   0.000043   0.000938
   11  C  1 YY    0.010430   0.000138  -0.000790  -0.000032  -0.002783
   12  C  1 ZZ   -0.009281  -0.000100   0.000318  -0.000011   0.001846
   13  C  1 XY    0.000609   0.000652   0.000195   0.000061  -0.000090
   14  C  1 XZ    0.000133   0.021470   0.003211  -0.030074   0.000030
   15  C  1 YZ    0.013846  -0.003783   0.040236   0.000233   0.001451
   16  C  1  S   -0.037789  -0.014870   0.157532   0.000021   1.292441
   17  C  1  X    0.001388   0.028595   0.003730   0.561258  -0.000597
   18  C  1  Y    0.051790  -0.002600   0.020157  -0.020409   0.037662
   19  C  1  Z   -0.014380  -0.004247   0.040114  -0.004683  -0.299623
   20  C  1 XX   -0.000110   0.000667  -0.005714  -0.000381  -0.039337
   21  C  1 YY   -0.043371  -0.003401   0.029513   0.000190   0.024578
   22  C  1 ZZ    0.043481   0.002735  -0.023799   0.000192   0.014759
   23  C  1 XY   -0.003353   0.004467   0.001053  -0.003240   0.002354
   24  C  1 XZ   -0.001463   0.003869  -0.001180  -0.041805   0.001697
   25  C  1 YZ   -0.052359   0.002370  -0.034499   0.003021   0.027004
   26  C  2  S   -0.000835  -0.000045  -0.000734   0.000002  -0.002504
   27  C  2  S    0.031856   0.015671  -0.151115  -0.003347   0.056184
   28  C  2  S   -0.054909   0.031327  -0.312765  -0.007470   0.365803
   29  C  2  X   -0.006089   0.439804   0.053075  -0.412085   0.000623
   30  C  2  Y    0.037424  -0.051406   0.470031   0.006316   0.044269
   31  C  2  Z    0.374697   0.030864  -0.256360  -0.002274   0.082515
   32  C  2  X   -0.002874   0.254626   0.032310  -0.348817  -0.000101
   33  C  2  Y   -0.065321  -0.025376   0.237987   0.003274   0.099756
   34  C  2  Z    0.047223   0.023073  -0.221531  -0.001083  -0.008281
   35  C  2 XX   -0.001551   0.000153  -0.004784   0.000112  -0.001704
   36  C  2 YY    0.011126   0.000275   0.000176  -0.000022  -0.004893
   37  C  2 ZZ   -0.009574  -0.000428   0.004608  -0.000089   0.006597
   38  C  2 XY    0.000176  -0.000476  -0.000378  -0.000075  -0.000085
   39  C  2 XZ    0.000548  -0.020340  -0.001326  -0.032074  -0.000050
   40  C  2 YZ    0.017594  -0.000965   0.020376   0.001503  -0.003662
   41  C  2  S   -0.015635   0.025161  -0.260834   0.000489   0.873916
   42  C  2  X   -0.000364   0.031236   0.004008  -0.513256   0.002087
   43  C  2  Y   -0.036038  -0.002458   0.022981   0.011499   0.190286
   44  C  2  Z   -0.014891  -0.000962   0.007282  -0.004321   0.143403
   45  C  2 XX   -0.003731  -0.001010   0.007046   0.000659  -0.039430
   46  C  2 YY   -0.036868   0.002288  -0.023245  -0.000813  -0.012492
   47  C  2 ZZ    0.040599  -0.001279   0.016199   0.000154   0.051921
   48  C  2 XY    0.000588  -0.001272  -0.000754   0.008332   0.000053
   49  C  2 XZ   -0.000027  -0.007167  -0.000931  -0.037687   0.000764
   50  C  2 YZ   -0.016999   0.000733  -0.011401   0.002655   0.032552
   51  H  3  S    0.233241  -0.016490   0.195956   0.006213   0.004841
   52  H  3  S    0.277449  -0.020875   0.249702   0.005804  -0.357299
   53  H  3  X   -0.000209   0.015609   0.001873  -0.020896  -0.000036
   54  H  3  Y   -0.009344  -0.000779   0.006555   0.000383  -0.010744
   55  H  3  Z    0.001156   0.001762  -0.015915  -0.000085  -0.001434
   56  H  3  S    0.036893  -0.001834   0.027732   0.009302  -0.893890
   57  H  3  X   -0.000497   0.015397   0.002001  -0.053225  -0.000029
   58  H  3  Y   -0.038834   0.001247  -0.018285   0.002760   0.031522
   59  H  3  Z   -0.035590   0.003159  -0.029058   0.000592   0.032639
   60  H  4  S    0.324545  -0.010435   0.144809  -0.005228   0.007103
   61  H  4  S    0.391756  -0.013613   0.192669  -0.007541  -0.405315
   62  H  4  X    0.000368   0.014351   0.001348   0.021813   0.000395
   63  H  4  Y    0.009569  -0.000503  -0.001029  -0.000748   0.009633
   64  H  4  Z    0.003234  -0.000667   0.005124   0.000054   0.002114
   65  H  4  S    0.036396  -0.002836   0.039664  -0.012103  -0.640121
   66  H  4  X    0.002634   0.015537   0.002795   0.045467  -0.003290
   67  H  4  Y    0.054902  -0.003478   0.035355  -0.001172  -0.063628
   68  H  4  Z    0.052657  -0.000402   0.003552   0.001473  -0.017519
   69  H  5  S   -0.073410   0.017670  -0.209918   0.000116   0.003779
   70  H  5  S   -0.184852   0.028590  -0.337586   0.002643  -0.417689
   71  H  5  X   -0.000267   0.014289   0.001333   0.022635  -0.000330
   72  H  5  Y   -0.003108  -0.000509  -0.000071  -0.000752  -0.012256
   73  H  5  Z   -0.010888  -0.000200   0.000231  -0.000223   0.003411
   74  H  5  S   -0.043513   0.002663  -0.041767   0.000309  -1.138230
   75  H  5  X    0.002310   0.012651   0.002568   0.052755   0.001368
   76  H  5  Y    0.051001  -0.003983   0.043202  -0.002351   0.035828
   77  H  5  Z   -0.006013   0.002302  -0.023354  -0.000639  -0.023975

                     11         12         13         14         15
                    0.0149     0.0251     0.0627     0.0711     0.0791
                     A          A          A          A          A   
    1  C  1  S   -0.001297   0.002466   0.000460   0.007557   0.002843
    2  C  1  S    0.067339  -0.017277  -0.000796  -0.012725   0.043566
    3  C  1  S    0.187467  -0.131220  -0.027131  -0.388023   0.156332
    4  C  1  X   -0.004560  -0.004894   0.172525  -0.008949   0.001665
    5  C  1  Y   -0.067806  -0.118010  -0.004720   0.037894   0.012443
    6  C  1  Z   -0.036393   0.004967   0.000059   0.013660   0.054574
    7  C  1  X   -0.009216  -0.014578   0.200617  -0.005072  -0.000004
    8  C  1  Y   -0.172111  -0.371571  -0.006900   0.102682   0.011140
    9  C  1  Z   -0.273436   0.104307  -0.016054   0.038742  -0.042987
   10  C  1 XX    0.002781  -0.003170  -0.000280  -0.007360  -0.006905
   11  C  1 YY    0.004897  -0.001775   0.000075   0.001165  -0.010924
   12  C  1 ZZ   -0.007678   0.004945   0.000206   0.006195   0.017828
   13  C  1 XY   -0.000036   0.000015  -0.000787   0.000378  -0.000236
   14  C  1 XZ    0.000095  -0.000144   0.006058  -0.000537  -0.000020
   15  C  1 YZ   -0.004756  -0.003809  -0.000754  -0.010518   0.003215
   16  C  1  S    0.448234  -1.782447  -0.634202 -10.795037   1.432309
   17  C  1  X   -0.024496  -0.067032  -0.626478   0.050538  -0.027285
   18  C  1  Y   -0.210291  -1.936244   0.073069   0.434226  -0.488130
   19  C  1  Z   -0.531899  -0.387405  -0.270935  -4.806073  -1.597649
   20  C  1 XX   -0.010897   0.016924   0.006135   0.079983   0.023185
   21  C  1 YY    0.022055  -0.051823  -0.004355  -0.154990   0.015678
   22  C  1 ZZ   -0.011158   0.034899  -0.001779   0.075007  -0.038863
   23  C  1 XY    0.001297  -0.000838   0.023168  -0.010820   0.001161
   24  C  1 XZ    0.000403   0.002742   0.041346  -0.001120   0.005257
   25  C  1 YZ   -0.042582   0.098831  -0.005011   0.004492   0.111490
   26  C  2  S   -0.001278  -0.000759  -0.000770  -0.005511   0.005563
   27  C  2  S   -0.072982   0.048421   0.001845   0.040708   0.031466
   28  C  2  S   -0.231768   0.250429   0.050250   0.424710   0.052213
   29  C  2  X    0.001375  -0.001695   0.127723  -0.009525   0.002396
   30  C  2  Y   -0.085005  -0.045898  -0.011000  -0.142400   0.060691
   31  C  2  Z   -0.027398   0.023537   0.001335   0.005203  -0.075330
   32  C  2  X    0.001863   0.000561   0.145391  -0.012095  -0.000920
   33  C  2  Y   -0.160599   0.097495   0.011987   0.117570  -0.139150
   34  C  2  Z   -0.246914   0.149280  -0.009912   0.048543  -0.060220
   35  C  2 XX   -0.003379   0.001454   0.000090   0.001534  -0.009931
   36  C  2 YY   -0.001678   0.002189  -0.000021  -0.000441  -0.013620
   37  C  2 ZZ    0.005057  -0.003643  -0.000069  -0.001093   0.023551
   38  C  2 XY   -0.000163  -0.000033   0.003974  -0.000129  -0.000054
   39  C  2 XZ    0.000413   0.000351  -0.013374   0.000867  -0.000164
   40  C  2 YZ    0.008211   0.007488   0.000646   0.001829  -0.006813
   41  C  2  S   -0.503266   2.322851   0.668999  11.094982  -0.231291
   42  C  2  X    0.006558   0.026240  -0.593277   0.053784  -0.006831
   43  C  2  Y   -0.551622   1.024835   0.006632   0.314159  -0.054814
   44  C  2  Z   -0.614492  -0.244779  -0.268719  -4.186211   1.850047
   45  C  2 XX    0.007823  -0.041063  -0.006785  -0.076371   0.063176
   46  C  2 YY   -0.063526   0.034003   0.005366   0.085808  -0.026169
   47  C  2 ZZ    0.055703   0.007060   0.001419  -0.009437  -0.037007
   48  C  2 XY   -0.000400   0.001102  -0.039527   0.004061  -0.002897
   49  C  2 XZ   -0.000355   0.000709  -0.014978   0.002140   0.001358
   50  C  2 YZ   -0.071762   0.084578   0.000449   0.060539   0.082526
   51  H  3  S    0.016194   0.014866  -0.000214  -0.023062  -0.019197
   52  H  3  S    0.669453  -0.553964  -0.052985  -0.856600   0.207968
   53  H  3  X    0.000151   0.000089  -0.005754   0.000423  -0.000068
   54  H  3  Y    0.010339   0.000114   0.000806   0.009866  -0.008513
   55  H  3  Z    0.008139  -0.000428   0.000193   0.005260   0.006981
   56  H  3  S    2.548260  -1.440516   0.192133   3.492166  -0.127476
   57  H  3  X   -0.000006  -0.000077   0.039705  -0.002782   0.000024
   58  H  3  Y   -0.083534   0.135312   0.008759   0.139546  -0.085307
   59  H  3  Z   -0.020633   0.003570   0.013092   0.138579  -0.095781
   60  H  4  S   -0.009437   0.012813  -0.001362  -0.022473  -0.023296
   61  H  4  S   -0.450804  -0.449098   0.020621   0.593570  -0.338769
   62  H  4  X    0.000230   0.000216  -0.003521   0.000210   0.000126
   63  H  4  Y    0.007538   0.002753   0.000169  -0.000189   0.003559
   64  H  4  Z    0.007188   0.002800  -0.000475  -0.010530  -0.011497
   65  H  4  S   -2.050561  -3.107686   0.015065   0.449558  -1.130008
   66  H  4  X   -0.002506  -0.002455   0.070250  -0.000808   0.000573
   67  H  4  Y   -0.060723  -0.051829  -0.003054   0.031497  -0.010457
   68  H  4  Z   -0.008596  -0.053579   0.002649   0.146913   0.028612
   69  H  5  S    0.002719  -0.002603   0.001105   0.025721  -0.038703
   70  H  5  S   -0.158105   0.861183   0.006312   0.409402   0.094269
   71  H  5  X   -0.000297   0.000018  -0.004189   0.000170  -0.000271
   72  H  5  Y   -0.002410   0.004246   0.000191  -0.001290  -0.006272
   73  H  5  Z    0.003233  -0.007277  -0.000111  -0.002276  -0.014211
   74  H  5  S   -0.477138   3.804474  -0.250557  -4.359023   0.558523
   75  H  5  X    0.002263  -0.002227   0.031502  -0.001816  -0.001729
   76  H  5  Y    0.063613  -0.092541   0.000215  -0.002634  -0.090511
   77  H  5  Z    0.051665   0.068486   0.003232   0.101968   0.038416

                     16         17         18         19         20
                    0.1118     0.1126     0.1167     0.1281     0.1459
                     A          A          A          A          A   
    1  C  1  S    0.005779  -0.001402  -0.038780  -0.014868  -0.014873
    2  C  1  S   -0.057133   0.016086  -0.204979  -0.019581  -0.119505
    3  C  1  S   -0.977038   0.272748   0.321456   0.526469   0.526111
    4  C  1  X   -0.059328  -0.228521  -0.003116   0.009432   0.002558
    5  C  1  Y    0.112494  -0.022659  -0.084172   0.237287   0.037485
    6  C  1  Z    0.002922  -0.000940   0.121276   0.002188   0.129493
    7  C  1  X   -0.066935  -0.174619  -0.002076  -0.039423  -0.004619
    8  C  1  Y   -0.406403   0.123558   0.292467  -0.932998  -0.168586
    9  C  1  Z   -1.185476   0.366156  -1.555013  -0.381079   1.555425
   10  C  1 XX    0.000551  -0.000358   0.019908   0.016616  -0.039457
   11  C  1 YY   -0.000104   0.000053   0.003867  -0.008045   0.048703
   12  C  1 ZZ   -0.000447   0.000305  -0.023775  -0.008571  -0.009246
   13  C  1 XY   -0.000690  -0.001124  -0.000620  -0.000870   0.002924
   14  C  1 XZ    0.002262   0.006514  -0.000291   0.000413  -0.000710
   15  C  1 YZ    0.023297  -0.006516  -0.007333   0.009037  -0.016548
   16  C  1  S   -5.571782   1.368692   5.077067   5.289528   0.105673
   17  C  1  X    0.558346   2.163932   0.052991  -0.203208  -0.079904
   18  C  1  Y   -0.329048   0.031949   1.839391  -6.051611  -2.445126
   19  C  1  Z   -3.510963   0.957807  -1.944859   1.702924   0.550325
   20  C  1 XX    0.046696  -0.011456  -0.160635  -0.036982  -0.096596
   21  C  1 YY    0.172290  -0.057111   0.341606   0.197680  -0.663163
   22  C  1 ZZ   -0.218986   0.068568  -0.180971  -0.160698   0.759759
   23  C  1 XY    0.016271   0.030425   0.018770   0.015674  -0.020007
   24  C  1 XZ    0.016308   0.054539   0.003046   0.009265   0.018014
   25  C  1 YZ   -0.057684   0.015251  -0.013424   0.332228   0.318258
   26  C  2  S    0.008598  -0.002322  -0.035895  -0.026235   0.024621
   27  C  2  S    0.109155  -0.029702  -0.112275  -0.099071   0.012497
   28  C  2  S    0.451340  -0.140022   1.276399   0.777790  -2.183989
   29  C  2  X    0.066452   0.231669   0.000992   0.000249   0.000100
   30  C  2  Y    0.172913  -0.052679  -0.007691   0.001982  -0.094788
   31  C  2  Z    0.056739  -0.014951  -0.085150  -0.008466  -0.068036
   32  C  2  X    0.064613   0.219229  -0.001656   0.005548  -0.015901
   33  C  2  Y   -0.359079   0.110285   0.134105   0.408374  -0.510150
   34  C  2  Z   -1.314697   0.398386  -0.897678   0.125303   1.099357
   35  C  2 XX   -0.004734   0.001456   0.005296   0.013378  -0.011903
   36  C  2 YY    0.005968  -0.001643   0.002575  -0.007819   0.017865
   37  C  2 ZZ   -0.001234   0.000187  -0.007871  -0.005558  -0.005961
   38  C  2 XY    0.001457   0.005776  -0.000301  -0.000705   0.001037
   39  C  2 XZ    0.000446   0.004044   0.000111  -0.000676   0.000284
   40  C  2 YZ   -0.015616   0.003691   0.004118  -0.016850   0.001544
   41  C  2  S    3.973637  -0.947057   2.615993  -0.911318  -1.895961
   42  C  2  X   -0.615475  -2.146254  -0.024000   0.067546   0.018584
   43  C  2  Y   -2.690139   0.819238  -0.771280   3.514897   0.700635
   44  C  2  Z   -4.059505   1.103910  -0.151241   2.247361   1.080088
   45  C  2 XX    0.008284  -0.003562  -0.127620  -0.070595  -0.023404
   46  C  2 YY   -0.298039   0.090148  -0.129353   0.041816   0.197665
   47  C  2 ZZ    0.289754  -0.086586   0.256974   0.028778  -0.174261
   48  C  2 XY   -0.018489  -0.059157  -0.001331   0.000665   0.007080
   49  C  2 XZ    0.021764   0.082865   0.002772   0.000460   0.005043
   50  C  2 YZ   -0.237648   0.068262   0.092936   0.141295   0.190109
   51  H  3  S   -0.020157   0.001940   0.011570  -0.087548   0.103883
   52  H  3  S    2.184209  -0.663402  -0.525745  -1.787210   0.599900
   53  H  3  X   -0.000051   0.000675   0.000095   0.000024  -0.000090
   54  H  3  Y   -0.019181   0.005546   0.011387   0.011115  -0.008206
   55  H  3  Z   -0.011382   0.003458  -0.001888   0.015197  -0.005323
   56  H  3  S    5.973227  -1.687482   0.183598  -3.863773  -0.782110
   57  H  3  X    0.025475   0.117038   0.001396  -0.004682   0.007734
   58  H  3  Y   -0.596632   0.174533   0.245635   0.283212   0.221716
   59  H  3  Z   -0.369043   0.107248   0.065724   0.160228  -0.140589
   60  H  4  S    0.027904  -0.004757  -0.003014  -0.057397   0.097695
   61  H  4  S   -1.022266   0.331228  -1.686800  -3.135835   0.730154
   62  H  4  X   -0.000339   0.000469  -0.000464  -0.000906  -0.000817
   63  H  4  Y   -0.010467   0.003311  -0.009538  -0.022741  -0.023887
   64  H  4  Z   -0.008736   0.002781  -0.001072  -0.011057   0.005825
   65  H  4  S   -3.770899   1.067744  -0.791193  -5.121019  -1.958875
   66  H  4  X   -0.034149  -0.083331  -0.022025  -0.031648  -0.005285
   67  H  4  Y   -0.315829   0.097896  -0.441141  -0.568211  -0.469194
   68  H  4  Z   -0.292847   0.086878  -0.210117  -0.574096   0.404001
   69  H  5  S   -0.018350   0.004863  -0.017428  -0.021747   0.225566
   70  H  5  S   -0.010284   0.037998  -2.721250   1.106781   2.833388
   71  H  5  X   -0.000617  -0.001422   0.000801  -0.000517   0.000419
   72  H  5  Y   -0.007859   0.002171   0.026107  -0.016352   0.011299
   73  H  5  Z    0.000735  -0.000047  -0.013578   0.014680  -0.000218
   74  H  5  S   -1.173614   0.346321  -4.240675   6.581121   2.817644
   75  H  5  X   -0.033699  -0.117187   0.016670  -0.012755   0.008727
   76  H  5  Y   -0.009195  -0.000512   0.668256  -0.421939   0.136903
   77  H  5  Z    0.104419  -0.022222  -0.416865   0.164360   0.435636

                     21         22         23         24         25
                    0.1684     0.1955     0.2193     0.2527     0.2855
                     A          A          A          A          A   
    1  C  1  S    0.049306   0.018520   0.000130  -0.005092  -0.009401
    2  C  1  S    0.159160   0.011294   0.001375  -0.029538  -0.136622
    3  C  1  S   -2.122634  -0.546377   0.006894   0.730293   0.373523
    4  C  1  X   -0.005794   0.008545   0.001155  -0.005536   0.003159
    5  C  1  Y   -0.064865   0.125817  -0.010878  -0.200064   0.009317
    6  C  1  Z   -0.063608  -0.018443   0.001381   0.075658  -0.014177
    7  C  1  X   -0.003990   0.019758  -0.071824  -0.005011   0.011048
    8  C  1  Y   -0.094685   0.603171  -0.007906  -0.221938   0.072134
    9  C  1  Z   -1.005712   1.211340   0.019463   0.765546   2.369542
   10  C  1 XX    0.014252  -0.024582   0.003723  -0.015321  -0.023459
   11  C  1 YY   -0.005713   0.025386  -0.003792   0.018087  -0.073611
   12  C  1 ZZ   -0.008539  -0.000804   0.000069  -0.002766   0.097070
   13  C  1 XY   -0.002466   0.004319   0.047016  -0.000685  -0.001455
   14  C  1 XZ   -0.000773   0.000804  -0.002625  -0.001362   0.000762
   15  C  1 YZ   -0.037499   0.037752  -0.005629  -0.031456  -0.013607
   16  C  1  S  -18.301383 -20.566162  -0.046372 -10.549629   2.243671
   17  C  1  X   -0.034476   0.074827   0.012628  -0.054764   0.000891
   18  C  1  Y   -0.148827   2.482667  -0.134683  -1.702979  -0.962856
   19  C  1  Z   -6.227794  -5.812475  -0.036617  -2.359650   4.007136
   20  C  1 XX    0.180167   0.118134  -0.018347   0.083910  -0.272872
   21  C  1 YY    0.140263  -0.553032   0.019145  -0.220845   0.139789
   22  C  1 ZZ   -0.320430   0.434897  -0.000798   0.136936   0.133083
   23  C  1 XY    0.000364  -0.032196  -0.174081   0.001945   0.004084
   24  C  1 XZ    0.012208  -0.014480  -0.016036   0.031480  -0.009813
   25  C  1 YZ    0.441821  -0.208186   0.067654   0.853531   0.213136
   26  C  2  S   -0.045782  -0.017302  -0.000086  -0.004390   0.033977
   27  C  2  S   -0.198221  -0.047986  -0.002005  -0.001686   0.162009
   28  C  2  S    1.617938  -0.500694   0.020774  -0.383817  -0.600014
   29  C  2  X    0.004180  -0.006377  -0.040177   0.005592   0.002220
   30  C  2  Y   -0.038831   0.061759   0.007258   0.289330  -0.039144
   31  C  2  Z   -0.108568  -0.007874  -0.003600   0.022762  -0.252025
   32  C  2  X   -0.000171  -0.004106  -0.233171  -0.005291   0.025932
   33  C  2  Y   -0.136006   0.803668  -0.008015   0.392186   0.427396
   34  C  2  Z   -1.199834   1.115344   0.006855   0.795253   1.526020
   35  C  2 XX   -0.016328   0.012190  -0.000147   0.014466   0.028863
   36  C  2 YY    0.011679   0.003160  -0.000640  -0.021627   0.021374
   37  C  2 ZZ    0.004649  -0.015350   0.000787   0.007161  -0.050237
   38  C  2 XY   -0.000485   0.001292   0.022221  -0.001127  -0.001343
   39  C  2 XZ    0.000642  -0.000598   0.009172   0.000233  -0.000886
   40  C  2 YZ    0.017516  -0.052616   0.003916   0.010086  -0.006777
   41  C  2  S   18.560027  20.707838   0.055368  11.196600  -3.951123
   42  C  2  X    0.003889  -0.023553  -0.168812   0.037537   0.013401
   43  C  2  Y   -1.666562  -1.006404   0.018089   1.568716   1.296172
   44  C  2  Z   -6.122775  -5.188030  -0.078454  -2.489413   1.562151
   45  C  2 XX   -0.184981  -0.159878   0.023650  -0.007775   0.186962
   46  C  2 YY   -0.162302   0.201832  -0.006395   0.203475   0.182170
   47  C  2 ZZ    0.347284  -0.041954  -0.017255  -0.195700  -0.369132
   48  C  2 XY   -0.008345   0.021524   0.252776  -0.009724   0.006795
   49  C  2 XZ    0.010053  -0.011266  -0.111553   0.020897   0.002015
   50  C  2 YZ    0.335097   0.268862   0.028335   0.610926   0.322128
   51  H  3  S    0.175555  -0.179568   0.011350  -0.092187  -0.022620
   52  H  3  S   -0.298577  -2.996597  -0.051242  -2.927398  -2.124385
   53  H  3  X    0.000396  -0.000594  -0.004034   0.000303  -0.000247
   54  H  3  Y    0.013056  -0.002164   0.000841  -0.003395   0.002687
   55  H  3  Z    0.005271  -0.007266   0.000362  -0.004445  -0.011728
   56  H  3  S    3.128495   1.694930   0.083635   0.218574  -2.673077
   57  H  3  X   -0.005875   0.021191   0.528653  -0.024874  -0.036900
   58  H  3  Y    0.601385   0.624998   0.001223  -0.230287   0.700254
   59  H  3  Z    0.160782  -0.200913   0.056416   0.208265   0.252894
   60  H  4  S   -0.159689   0.217662  -0.013676   0.013706   0.019070
   61  H  4  S   -0.586867   3.607512  -0.133508  -0.726781   1.159022
   62  H  4  X    0.000633   0.000289  -0.000574   0.000422   0.000453
   63  H  4  Y    0.020069   0.001521   0.001022  -0.000017   0.015574
   64  H  4  Z    0.021864  -0.001766   0.001960   0.024633  -0.008800
   65  H  4  S   -2.007725   0.917882  -0.124836  -0.456895   0.919868
   66  H  4  X    0.018220  -0.006561  -0.728182   0.029825  -0.011128
   67  H  4  Y    0.142918   0.189986   0.020308  -0.335572   0.589023
   68  H  4  Z    0.220348   0.130762   0.047205   0.431458  -0.849241
   69  H  5  S    0.027315  -0.055310   0.008875   0.155801   0.047509
   70  H  5  S    1.533090   1.039925   0.125307   2.757909   1.898679
   71  H  5  X   -0.000753   0.000501   0.003113   0.000375  -0.000303
   72  H  5  Y   -0.015906   0.002048   0.000240   0.016469  -0.012671
   73  H  5  Z   -0.007723   0.016423  -0.002384  -0.017675  -0.017450
   74  H  5  S   -1.444588  -3.061590   0.046867  -0.053871   2.692360
   75  H  5  X   -0.035594   0.039153   0.829846  -0.032693  -0.026549
   76  H  5  Y   -0.474120  -0.042755  -0.059817  -0.029151  -0.825481
   77  H  5  Z   -0.032283   0.601856  -0.048871  -0.510282  -0.877340

                     26         27         28         29         30
                    0.3083     0.3155     0.3553     0.3771     0.4044
                     A          A          A          A          A   
    1  C  1  S   -0.005407  -0.030581  -0.000818  -0.019923   0.040275
    2  C  1  S   -0.023586  -0.128856  -0.000789  -0.059277  -0.016930
    3  C  1  S    0.232961   1.459812   0.033209   1.758829  -2.112064
    4  C  1  X   -0.059428   0.007691  -0.246092   0.009496  -0.000340
    5  C  1  Y   -0.023766  -0.136354   0.011633   0.279001   0.054959
    6  C  1  Z   -0.046147  -0.250124  -0.000811  -0.075664  -0.000496
    7  C  1  X   -0.332444   0.058631  -0.970761   0.123279  -0.011177
    8  C  1  Y    0.070494   0.213196   0.048691   3.086519   0.322718
    9  C  1  Z    0.465186   2.318584  -0.027670   1.749992  -1.816791
   10  C  1 XX   -0.007148  -0.026609  -0.000204  -0.013621   0.018344
   11  C  1 YY   -0.000326   0.000786   0.000088   0.006924   0.008866
   12  C  1 ZZ    0.007474   0.025823   0.000116   0.006697  -0.027210
   13  C  1 XY   -0.033997   0.007014   0.011126  -0.000548  -0.000996
   14  C  1 XZ   -0.018303   0.002414  -0.029559  -0.001610  -0.000883
   15  C  1 YZ   -0.002908  -0.022754   0.000159  -0.050218  -0.010169
   16  C  1  S    1.260227   4.923981   0.109356   0.115241  -6.225081
   17  C  1  X   -0.126095  -0.084175  -1.111302   0.186201   0.027639
   18  C  1  Y   -0.684793  -3.536079   0.075363   4.846191   1.604524
   19  C  1  Z    0.434092   1.426129   0.018377  -0.049854  -1.788339
   20  C  1 XX   -0.001217  -0.086637  -0.007835  -0.083787   0.532206
   21  C  1 YY   -0.129368  -0.553412   0.001560  -0.334256   0.607973
   22  C  1 ZZ    0.130585   0.640050   0.006275   0.418043  -1.140179
   23  C  1 XY    0.503393  -0.110436  -0.226186  -0.012919   0.026407
   24  C  1 XZ    0.017164   0.019971   0.075343   0.019476   0.010249
   25  C  1 YZ    0.167448   1.026653   0.014268   0.289770   0.263180
   26  C  2  S    0.006241   0.027684  -0.000190   0.010188   0.032488
   27  C  2  S    0.024962   0.108607   0.000391   0.027978  -0.012234
   28  C  2  S   -0.331714  -1.534218  -0.001522  -0.566761  -0.287826
   29  C  2  X   -0.109540   0.023850   0.044875   0.000418  -0.005893
   30  C  2  Y    0.008001   0.033222  -0.002887   0.034664  -0.202124
   31  C  2  Z   -0.004830   0.016069  -0.001756  -0.019090   0.035719
   32  C  2  X   -0.638514   0.101375   0.448808  -0.033239  -0.027092
   33  C  2  Y   -0.062195  -0.447396  -0.036497   0.206027  -2.269953
   34  C  2  Z    0.562873   3.002336  -0.016944   2.011330  -2.941378
   35  C  2 XX    0.006477   0.028044  -0.000133   0.007030   0.005683
   36  C  2 YY    0.009035   0.051145  -0.000047   0.011214  -0.021519
   37  C  2 ZZ   -0.015512  -0.079189   0.000179  -0.018244   0.015836
   38  C  2 XY    0.035049  -0.005629  -0.010311   0.000142   0.000284
   39  C  2 XZ    0.024061  -0.003978   0.015211   0.000087   0.000113
   40  C  2 YZ   -0.004634  -0.021004  -0.000890   0.006447  -0.006981
   41  C  2  S   -1.012751  -3.929498  -0.071538   0.613951   0.685372
   42  C  2  X   -0.442959   0.122146   0.536597  -0.044763  -0.033288
   43  C  2  Y    0.530876   2.598958  -0.031400  -0.628237  -2.757503
   44  C  2  Z    0.781580   3.804022   0.013525   0.592711  -1.879506
   45  C  2 XX    0.047609   0.361010  -0.012738   0.137322   0.899309
   46  C  2 YY    0.079554   0.392318   0.007390   0.782557  -0.963238
   47  C  2 ZZ   -0.127163  -0.753328   0.005348  -0.919880   0.063930
   48  C  2 XY   -0.357456   0.065546  -0.178665   0.010284  -0.031513
   49  C  2 XZ   -0.147121   0.044438   0.325703   0.024111   0.006954
   50  C  2 YZ    0.198313   1.137371   0.003393   0.712869   0.126673
   51  H  3  S   -0.008033  -0.017684   0.000046   0.056285  -0.034526
   52  H  3  S   -0.557947  -3.001984   0.028802  -3.295362   6.795073
   53  H  3  X    0.004892  -0.000607   0.000147  -0.000023   0.000015
   54  H  3  Y   -0.000406  -0.000461  -0.000165   0.000373   0.001974
   55  H  3  Z   -0.006468  -0.034084  -0.000169  -0.009417   0.008903
   56  H  3  S   -0.625461  -2.835835  -0.006879  -0.558104   3.005428
   57  H  3  X    1.494225  -0.264295  -0.389160  -0.002519   0.018529
   58  H  3  Y    0.175405   1.044478  -0.001554   0.479660  -1.446804
   59  H  3  Z   -0.192723  -1.046387  -0.001465   0.743289  -0.871069
   60  H  4  S   -0.014739  -0.048958   0.000158   0.026346   0.038550
   61  H  4  S   -0.045809  -0.510387  -0.054426   4.337711   0.186744
   62  H  4  X    0.004889  -0.000655  -0.011906   0.000268  -0.000358
   63  H  4  Y    0.000171  -0.000964   0.000356   0.004994   0.003935
   64  H  4  Z    0.000278   0.003767   0.000268   0.002688   0.000681
   65  H  4  S   -0.237959  -1.287008   0.017918   4.144595   0.224140
   66  H  4  X    1.274784  -0.232577   0.717941   0.035390   0.039505
   67  H  4  Y    0.032945   0.157616  -0.067313  -0.093978  -0.294281
   68  H  4  Z    0.116352   0.767484   0.002555   1.553577  -0.424119
   69  H  5  S    0.004488   0.044545   0.000017   0.010161   0.022563
   70  H  5  S    0.543057   3.292256  -0.033043  -2.697309   0.469575
   71  H  5  X   -0.006316   0.001371  -0.010013   0.000370   0.000030
   72  H  5  Y    0.000939   0.008338   0.000792   0.014344   0.000748
   73  H  5  Z   -0.005778  -0.032202  -0.000122  -0.018087   0.001670
   74  H  5  S    0.745762   3.585722  -0.029275  -3.868614  -0.978958
   75  H  5  X   -0.454611   0.078207   1.618416  -0.048195  -0.020529
   76  H  5  Y   -0.083170  -0.548590  -0.051935  -0.389643  -0.208830
   77  H  5  Z    0.053215   0.401846  -0.015153  -0.898571  -0.206927

                     31         32         33         34         35
                    0.4384     0.4440     0.4485     0.4763     0.4825
                     A          A          A          A          A   
    1  C  1  S    0.064833   0.014608  -0.001569   0.023064   0.010147
    2  C  1  S    0.031700  -0.046695  -0.000558  -0.027231  -0.013042
    3  C  1  S   -4.219020   0.688513   0.242502  -2.262661  -0.776297
    4  C  1  X    0.010122  -0.027901   0.248048   0.009853  -0.048474
    5  C  1  Y    0.027755  -0.065008  -0.010028  -0.129521   0.034930
    6  C  1  Z    0.085751   0.004197   0.008677  -0.017015  -0.002167
    7  C  1  X    0.071318  -0.092943   1.823730  -0.029760  -0.346191
    8  C  1  Y   -0.597421   1.188091   0.321421  -3.716309  -0.519951
    9  C  1  Z    5.940165   3.728694   0.209968  -0.948330  -0.749326
   10  C  1 XX    0.017923  -0.008092   0.000095  -0.012747   0.000870
   11  C  1 YY   -0.026599  -0.005341  -0.000904   0.013173   0.003089
   12  C  1 ZZ    0.008675   0.013432   0.000809  -0.000426  -0.003959
   13  C  1 XY   -0.001372  -0.000686   0.001897   0.000526  -0.004517
   14  C  1 XZ    0.000277   0.000190  -0.014176  -0.002917  -0.030361
   15  C  1 YZ    0.019442   0.011493  -0.002145  -0.009860   0.010163
   16  C  1  S   -6.897525  -3.994280  -0.733478   3.697568   0.044554
   17  C  1  X    0.024716  -0.009290   1.149033   0.034232   0.141358
   18  C  1  Y   -0.586609   1.618763   0.233998  -0.833052  -0.316919
   19  C  1  Z    1.095166   0.271146  -0.114934   0.788056   0.011168
   20  C  1 XX    0.577880   0.279879   0.017929  -0.456621   0.028068
   21  C  1 YY   -1.937993  -0.739231  -0.016972   0.527731   0.388573
   22  C  1 ZZ    1.360113   0.459352  -0.000957  -0.071110  -0.416641
   23  C  1 XY   -0.112496  -0.041959  -0.259978   0.033189  -0.303643
   24  C  1 XZ   -0.003419  -0.008471  -0.121115   0.080065   1.425254
   25  C  1 YZ    0.630931  -2.634348  -0.209791  -0.086644   0.308532
   26  C  2  S    0.061859   0.028388  -0.002176   0.052368  -0.014339
   27  C  2  S   -0.001171  -0.027295  -0.006413   0.015393   0.001869
   28  C  2  S   -6.409519  -2.487096   0.109941  -4.117019   1.790973
   29  C  2  X    0.002947   0.009377  -0.256510  -0.028107  -0.249569
   30  C  2  Y    0.125741   0.065486   0.009405  -0.134915   0.012599
   31  C  2  Z    0.032321  -0.080376   0.006242  -0.179601   0.006045
   32  C  2  X   -0.011326   0.045342  -0.688906  -0.098052  -1.520478
   33  C  2  Y   -0.736892   3.147797   0.292195  -1.483082   0.088691
   34  C  2  Z    3.108952   2.690168   0.272022  -2.486392  -0.681240
   35  C  2 XX    0.033155  -0.001113  -0.001008  -0.010792  -0.002499
   36  C  2 YY   -0.013016   0.026942   0.002349   0.016172  -0.003266
   37  C  2 ZZ   -0.020139  -0.025829  -0.001341  -0.005380   0.005765
   38  C  2 XY   -0.000914  -0.000236   0.004552   0.000836   0.004148
   39  C  2 XZ   -0.000596   0.002677  -0.015061  -0.001550   0.001722
   40  C  2 YZ   -0.021177   0.054454   0.005565   0.012260  -0.007390
   41  C  2  S   -0.642208   1.277752   0.701154  -4.747357   0.162441
   42  C  2  X   -0.003677   0.041105  -1.184632  -0.079475  -0.521792
   43  C  2  Y    0.506475   0.032776  -0.009537  -0.227616   0.146227
   44  C  2  Z   -0.234027  -0.145302  -0.099589   0.154254   0.018290
   45  C  2 XX    0.037086   0.206007  -0.003667  -0.147625  -0.021319
   46  C  2 YY    0.494106   1.354239   0.065829   0.100068   0.024138
   47  C  2 ZZ   -0.531192  -1.560246  -0.062162   0.047557  -0.002819
   48  C  2 XY    0.014416   0.003217  -0.659004  -0.052653  -0.981156
   49  C  2 XZ    0.030378  -0.124547   1.058692   0.070568  -0.310023
   50  C  2 YZ   -0.342872  -0.845855  -0.000057  -0.403144  -0.102204
   51  H  3  S   -0.093585   0.185502   0.018635   0.122443  -0.041846
   52  H  3  S    1.134983  -3.021920  -0.569321   6.496450  -0.448869
   53  H  3  X   -0.000601   0.000230  -0.017273  -0.001144  -0.021955
   54  H  3  Y   -0.018934   0.013183   0.000832   0.029432  -0.000763
   55  H  3  Z   -0.020846   0.024946   0.002937   0.002471  -0.004957
   56  H  3  S   -0.051209  -0.192185  -0.028628   0.891676  -0.146067
   57  H  3  X   -0.014350   0.012950   0.751851   0.036307   1.402893
   58  H  3  Y   -0.377703  -0.243877   0.143597  -3.255574   0.190424
   59  H  3  Z   -0.117818   1.418309   0.069761  -0.908877   0.393183
   60  H  4  S   -0.043486  -0.082683  -0.014529   0.026488   0.066244
   61  H  4  S    6.165470   9.334132   0.993026  -6.007162  -1.364284
   62  H  4  X    0.000443  -0.001344   0.016818   0.001496   0.004317
   63  H  4  Y    0.007494  -0.017980  -0.002125   0.003692  -0.002503
   64  H  4  Z   -0.005407  -0.011550   0.001119  -0.002287  -0.007780
   65  H  4  S    1.423908   1.897621   0.202369  -0.910772  -0.121778
   66  H  4  X    0.019011   0.248169  -1.273522  -0.125142   0.149131
   67  H  4  Y    1.098392   2.987888   0.318509  -1.628748  -0.178761
   68  H  4  Z    1.851334   0.120763   0.011790  -1.238580  -0.124918
   69  H  5  S   -0.177288   0.091095   0.012288   0.107111  -0.005788
   70  H  5  S    9.111529  -2.512999  -0.668991   4.740683   0.707148
   71  H  5  X    0.000237  -0.002311   0.007954   0.000760  -0.013524
   72  H  5  Y   -0.006776  -0.005545  -0.000645   0.022335   0.000006
   73  H  5  Z    0.006913  -0.003929  -0.001695   0.004034   0.003352
   74  H  5  S    1.534410  -0.489989  -0.166129   0.828687   0.212847
   75  H  5  X   -0.068499   0.146940  -0.425397  -0.053314   1.135304
   76  H  5  Y   -2.130428   1.460506   0.287688  -2.571435  -0.362285
   77  H  5  Z    1.114945   0.984190  -0.041252   1.415183  -0.103860

                     36         37         38         39         40
                    0.4871     0.4937     0.5046     0.5565     0.5631
                     A          A          A          A          A   
    1  C  1  S    0.010185   0.103889  -0.024774   0.078571  -0.004254
    2  C  1  S   -0.105953  -0.003362  -0.025870   0.021068   0.005118
    3  C  1  S   -1.488957  -8.266384   4.291674  -8.368928   0.357210
    4  C  1  X    0.024006   0.004576  -0.005491  -0.004963   0.071233
    5  C  1  Y    0.176146   0.004275  -0.109928  -0.063842   0.003059
    6  C  1  Z   -0.246251   0.324977  -0.080929  -0.148552   0.010018
    7  C  1  X    0.159059   0.017515  -0.190096   0.006835   1.358440
    8  C  1  Y   -0.396273  -0.835143  -7.060182  -0.253006   0.179162
    9  C  1  Z   -2.699574  -2.667501   1.343325  -1.642809   0.546797
   10  C  1 XX   -0.010445   0.008895  -0.005680   0.026473   0.000802
   11  C  1 YY    0.011993   0.031794  -0.008929  -0.008037  -0.001516
   12  C  1 ZZ   -0.001547  -0.040688   0.014609  -0.018436   0.000713
   13  C  1 XY    0.002640   0.001729   0.000110  -0.001726   0.002742
   14  C  1 XZ    0.005020   0.003323   0.000996  -0.003340  -0.055755
   15  C  1 YZ    0.056270  -0.003634   0.012871  -0.027362   0.000957
   16  C  1  S    4.334048  -4.988164  -4.830113 -14.716490   0.799980
   17  C  1  X    0.003177  -0.035682  -0.059658   0.014930   0.220564
   18  C  1  Y   -0.156688  -0.559019  -1.885866   0.915827  -0.078329
   19  C  1  Z    0.310424  -0.210217  -0.970343  -4.874554   0.269613
   20  C  1 XX   -0.280915   0.297250   0.583161  -0.036831   0.040216
   21  C  1 YY    0.414644   2.644401  -0.645893  -1.823430  -0.173740
   22  C  1 ZZ   -0.133728  -2.941651   0.062732   1.860261   0.133524
   23  C  1 XY    0.083466   0.150079   0.057523  -0.072339   1.601859
   24  C  1 XZ   -0.150125  -0.166465  -0.051676   0.100938   2.189081
   25  C  1 YZ    0.808242   0.417835   0.259119   0.155310  -0.066028
   26  C  2  S   -0.005968  -0.088110  -0.032460  -0.051377   0.005160
   27  C  2  S    0.092051  -0.081022  -0.013837   0.135757  -0.002675
   28  C  2  S    2.126358  10.057650   2.900444   2.965660  -0.575856
   29  C  2  X    0.019912   0.021410  -0.002004  -0.014098  -0.317911
   30  C  2  Y    0.071214  -0.020934  -0.017348   0.004918   0.006076
   31  C  2  Z   -0.196660   0.178608   0.003690  -0.087803   0.013923
   32  C  2  X    0.142079   0.182283   0.112664  -0.067343  -1.438383
   33  C  2  Y   -0.564276   1.042313   3.294986   0.667861   0.068600
   34  C  2  Z   -2.928014  -3.073291   2.506892  -1.496838   0.509081
   35  C  2 XX    0.013115  -0.049789   0.002027   0.011296   0.002225
   36  C  2 YY   -0.014792   0.004115   0.007329  -0.027163  -0.001253
   37  C  2 ZZ    0.001677   0.045674  -0.009356   0.015868  -0.000972
   38  C  2 XY    0.000615   0.001438   0.000017  -0.000141   0.027258
   39  C  2 XZ   -0.002189  -0.000458  -0.000430  -0.000419  -0.033148
   40  C  2 YZ   -0.031672   0.006631   0.010626  -0.013485   0.000101
   41  C  2  S   -4.166578   5.279058   5.826744  15.696029  -0.815243
   42  C  2  X    0.036380   0.055796   0.019842  -0.025000  -0.382932
   43  C  2  Y   -0.219436   0.444202   0.979234  -1.187000   0.104832
   44  C  2  Z    0.351109  -0.710752  -0.699859  -3.825811   0.268377
   45  C  2 XX    0.246790  -0.329021  -0.028663  -0.378141   0.029462
   46  C  2 YY    0.325901  -0.553004   1.460273  -0.913562   0.043229
   47  C  2 ZZ   -0.572691   0.882025  -1.431610   1.291703  -0.072691
   48  C  2 XY    0.100187   0.085504   0.072962  -0.025837   0.054993
   49  C  2 XZ    0.110882   0.037313   0.045703   0.040946   1.891544
   50  C  2 YZ   -0.954266   0.252797  -0.363426   1.013835  -0.000860
   51  H  3  S   -0.182052  -0.029657   0.048784  -0.152660   0.001253
   52  H  3  S    2.337671  -3.828502  -7.392569  -3.036734  -0.183289
   53  H  3  X    0.002388   0.003173   0.001209  -0.001644  -0.001680
[...]
 II,JST,KST,LST =  1  1  1  1 NREC =         1 INTLOC =    1
 II,JST,KST,LST =  2  1  1  1 NREC =         1 INTLOC =    1
 II,JST,KST,LST =  3  1  1  1 NREC =         1 INTLOC =    1
 II,JST,KST,LST =  4  1  1  1 NREC =         1 INTLOC =    1
 II,JST,KST,LST =  5  1  1  1 NREC =         1 INTLOC =    1
 II,JST,KST,LST =  6  1  1  1 NREC =         1 INTLOC =    1
 II,JST,KST,LST =  7  1  1  1 NREC =         1 INTLOC =    4
 II,JST,KST,LST =  8  1  1  1 NREC =         1 INTLOC =   49
 II,JST,KST,LST =  9  1  1  1 NREC =         1 INTLOC =  436
 II,JST,KST,LST = 10  1  1  1 NREC =         1 INTLOC =  436
 II,JST,KST,LST = 11  1  1  1 NREC =         1 INTLOC =  436
 II,JST,KST,LST = 12  1  1  1 NREC =         1 INTLOC =  733
 II,JST,KST,LST = 13  1  1  1 NREC =         1 INTLOC =  733
 II,JST,KST,LST = 14  1  1  1 NREC =         1 INTLOC =  733
 II,JST,KST,LST = 15  1  1  1 NREC =         1 INTLOC =  733
 II,JST,KST,LST = 16  1  1  1 NREC =         1 INTLOC = 2821
 II,JST,KST,LST = 17  1  1  1 NREC =         1 INTLOC = 3427
 II,JST,KST,LST = 18  1  1  1 NREC =         1 INTLOC = 8075
 II,JST,KST,LST = 19  1  1  1 NREC =         1 INTLOC = 8075
 II,JST,KST,LST = 20  1  1  1 NREC =         2 INTLOC = 4221
 II,JST,KST,LST = 21  1  1  1 NREC =         2 INTLOC = 6925
 II,JST,KST,LST = 22  1  1  1 NREC =         3 INTLOC =10672
 II,JST,KST,LST = 23  1  1  1 NREC =         3 INTLOC =13173
 II,JST,KST,LST = 24  1  1  1 NREC =         6 INTLOC =10062
 II,JST,KST,LST = 25  1  1  1 NREC =         6 INTLOC =10062
 II,JST,KST,LST = 26  1  1  1 NREC =         6 INTLOC =14070
 II,JST,KST,LST = 27  1  1  1 NREC =         7 INTLOC =13452
 II,JST,KST,LST = 28  1  1  1 NREC =         8 INTLOC =12989
 II,JST,KST,LST = 29  1  1  1 NREC =        10 INTLOC = 6143
 II,JST,KST,LST = 30  1  1  1 NREC =        11 INTLOC = 4179
 II,JST,KST,LST = 31  1  1  1 NREC =        11 INTLOC = 8055
 II,JST,KST,LST = 32  1  1  1 NREC =        15 INTLOC = 5453
 II,JST,KST,LST = 33  1  1  1 NREC =        15 INTLOC = 5453
 II,JST,KST,LST = 34  1  1  1 NREC =        17 INTLOC =13162
 II,JST,KST,LST = 35  1  1  1 NREC =        19 INTLOC = 1848
 II,JST,KST,LST = 36  1  1  1 NREC =        19 INTLOC =14826
 II,JST,KST,LST = 37  1  1  1 NREC =        22 INTLOC = 8052
 II,JST,KST,LST = 38  1  1  1 NREC =        25 INTLOC = 8127
 II,JST,KST,LST = 39  1  1  1 NREC =        28 INTLOC = 5932
 II,JST,KST,LST = 40  1  1  1 NREC =        34 INTLOC =12286
 II,JST,KST,LST = 41  1  1  1 NREC =        34 INTLOC =12286
 II,JST,KST,LST = 42  1  1  1 NREC =        40 INTLOC = 9976
 II,JST,KST,LST = 43  1  1  1 NREC =        45 INTLOC = 3005
 II,JST,KST,LST = 44  1  1  1 NREC =        47 INTLOC =  161
 II,JST,KST,LST = 45  1  1  1 NREC =        49 INTLOC = 9842
 II,JST,KST,LST = 46  1  1  1 NREC =        52 INTLOC = 5306
 II,JST,KST,LST = 47  1  1  1 NREC =        68 INTLOC =10559
 II,JST,KST,LST = 48  1  1  1 NREC =        68 INTLOC =10559
 II,JST,KST,LST = 49  1  1  1 NREC =        77 INTLOC = 5568
 II,JST,KST,LST = 50  1  1  1 NREC =        82 INTLOC =10157
 II,JST,KST,LST = 51  1  1  1 NREC =       100 INTLOC = 2792
 II,JST,KST,LST = 52  1  1  1 NREC =       149 INTLOC = 9176
 II,JST,KST,LST = 53  1  1  1 NREC =       149 INTLOC = 9176
 II,JST,KST,LST = 54  1  1  1 NREC =       149 INTLOC = 9176
 II,JST,KST,LST = 55  1  1  1 NREC =       171 INTLOC =11775
 II,JST,KST,LST = 56  1  1  1 NREC =       171 INTLOC =11775
 II,JST,KST,LST = 57  1  1  1 NREC =       181 INTLOC =12570
 II,JST,KST,LST = 58  1  1  1 NREC =       183 INTLOC = 8536
 II,JST,KST,LST = 59  1  1  1 NREC =       190 INTLOC =   38
 II,JST,KST,LST = 60  1  1  1 NREC =       196 INTLOC = 8311
 II,JST,KST,LST = 61  1  1  1 NREC =       202 INTLOC =14156
 II,JST,KST,LST = 62  1  1  1 NREC =       237 INTLOC =11951
 II,JST,KST,LST = 63  1  1  1 NREC =       239 INTLOC =11569
 II,JST,KST,LST = 64  1  1  1 NREC =       243 INTLOC =11470
 II,JST,KST,LST = 65  1  1  1 NREC =       265 INTLOC = 9540
 II,JST,KST,LST = 66  1  1  1 NREC =       269 INTLOC = 6699
 SCHWARZ INEQUALITY TEST SKIPPED       32808 INTEGRAL BLOCKS.
 TOTAL NUMBER OF NONZERO TWO-ELECTRON INTEGRALS =            67018123
       4477 INTEGRAL RECORDS WERE STORED ON DISK FILE  8.
  ...... END OF TWO-ELECTRON INTEGRALS .....
 CPU     0: STEP CPU TIME=     0.27 TOTAL CPU TIME=         23.5 (      0.4 MIN)
 TOTAL WALL CLOCK TIME=         23.9 SECONDS, CPU UTILIZATION IS    98.39%

          ---------------------------------------------
          MONOMER ELECTROSTATIC INTERACTION (OWN BASIS)
          ---------------------------------------------

          -------------
          GUESS OPTIONS
          -------------
          GUESS =MOSAVED           NORB  =       0          NORDER=       0
          MIX   =       F          PRTMO =       F          PUNMO =       F
          TOLZ  = 1.0E-08          TOLE  = 1.0E-05
          SYMDEN=       F          PURIFY=       F

 INITIAL GUESS ORBITALS GENERATED BY MOSAVED  ROUTINE.

 STATISTICS FOR GENERATION OF SYMMETRY ORBITAL -Q- MATRIX
 NUMBER OF CARTESIAN ATOMIC ORBITALS=        154
 NUMBER OF SPHERICAL CONTAMINANTS DROPPED=     8
 NUMBER OF LINEARLY DEPENDENT MOS DROPPED=     0
 TOTAL NUMBER OF MOS IN VARIATION SPACE=     146
 ...... END OF INITIAL ORBITAL SELECTION ......
 CPU     0: STEP CPU TIME=     0.01 TOTAL CPU TIME=         23.5 (      0.4 MIN)
 TOTAL WALL CLOCK TIME=         23.9 SECONDS, CPU UTILIZATION IS    98.39%

          ---------------------------
                  UHF SCF CALCULATION
          ---------------------------

 FINAL UHF ENERGY IS     -155.3025510086 AFTER   1 ITERATIONS
 ...... END OF UHF CALCULATION ......
 CPU     0: STEP CPU TIME=     0.08 TOTAL CPU TIME=         23.6 (      0.4 MIN)
 TOTAL WALL CLOCK TIME=         24.0 SECONDS, CPU UTILIZATION IS    98.39%

          -------------
          GUESS OPTIONS
          -------------
          GUESS =MOSAVED           NORB  =       0          NORDER=       0
          MIX   =       F          PRTMO =       F          PUNMO =       F
          TOLZ  = 1.0E-08          TOLE  = 1.0E-05
          SYMDEN=       F          PURIFY=       F

 INITIAL GUESS ORBITALS GENERATED BY MOSAVED  ROUTINE.

 STATISTICS FOR GENERATION OF SYMMETRY ORBITAL -Q- MATRIX
 NUMBER OF CARTESIAN ATOMIC ORBITALS=        154
 NUMBER OF SPHERICAL CONTAMINANTS DROPPED=     8
 NUMBER OF LINEARLY DEPENDENT MOS DROPPED=     0
 TOTAL NUMBER OF MOS IN VARIATION SPACE=     146
 ...... END OF INITIAL ORBITAL SELECTION ......
 CPU     0: STEP CPU TIME=     0.01 TOTAL CPU TIME=         23.6 (      0.4 MIN)
 TOTAL WALL CLOCK TIME=         24.0 SECONDS, CPU UTILIZATION IS    98.39%

          ---------------------------
                  UHF SCF CALCULATION
          ---------------------------

 DIRECT SCF CALCULATION, SCHWRZ=T   FDIFF=T
 SCHWARZ INEQUALITY OVERHEAD:     11935 INTEGRALS, T=        0.00

 FINAL UHF ENERGY IS     -332.1959318768 AFTER   1 ITERATIONS
 ...... END OF UHF CALCULATION ......
 CPU     0: STEP CPU TIME=     0.28 TOTAL CPU TIME=         23.9 (      0.4 MIN)
 TOTAL WALL CLOCK TIME=         24.2 SECONDS, CPU UTILIZATION IS    98.37%

 XEDA STEP ENERGY SUMMATION
 ETOT =       -155.30255101     ENUC =        103.47609147
 EEXCH=        -22.94703069

          --------------------------------------------------
          MONOMER EXCHANGE-REPULSION INTERACTION (OWN BASIS)
          --------------------------------------------------

          -------------
          GUESS OPTIONS
          -------------
          GUESS =MOSAVED           NORB  =       0          NORDER=       0
          MIX   =       F          PRTMO =       F          PUNMO =       F
          TOLZ  = 1.0E-08          TOLE  = 1.0E-05
          SYMDEN=       F          PURIFY=       F

 INITIAL GUESS ORBITALS GENERATED BY MOSAVED  ROUTINE.

 STATISTICS FOR GENERATION OF SYMMETRY ORBITAL -Q- MATRIX
 NUMBER OF CARTESIAN ATOMIC ORBITALS=        154
 NUMBER OF SPHERICAL CONTAMINANTS DROPPED=     8
 NUMBER OF LINEARLY DEPENDENT MOS DROPPED=     0
 TOTAL NUMBER OF MOS IN VARIATION SPACE=     146
 ...... END OF INITIAL ORBITAL SELECTION ......
 CPU     0: STEP CPU TIME=     0.01 TOTAL CPU TIME=         23.9 (      0.4 MIN)
 TOTAL WALL CLOCK TIME=         24.3 SECONDS, CPU UTILIZATION IS    98.37%

          ---------------------------
                  UHF SCF CALCULATION
          ---------------------------

 FINAL UHF ENERGY IS     -154.6245063798 AFTER   1 ITERATIONS
 ...... END OF UHF CALCULATION ......
 CPU     0: STEP CPU TIME=     0.08 TOTAL CPU TIME=         23.9 (      0.4 MIN)
 TOTAL WALL CLOCK TIME=         24.3 SECONDS, CPU UTILIZATION IS    98.34%

 XEDA STEP ENERGY SUMMATION
 ETOT =       -154.62450638     ENUC =        103.47609147

          ---------------------------------------------
          MONOMER ELECTROSTATIC INTERACTION (ALL BASIS)
          ---------------------------------------------

          -------------
          GUESS OPTIONS
          -------------
          GUESS =MOSAVED           NORB  =       0          NORDER=       0
          MIX   =       F          PRTMO =       F          PUNMO =       F
          TOLZ  = 1.0E-08          TOLE  = 1.0E-05
          SYMDEN=       F          PURIFY=       F

 INITIAL GUESS ORBITALS GENERATED BY MOSAVED  ROUTINE.

 STATISTICS FOR GENERATION OF SYMMETRY ORBITAL -Q- MATRIX
 NUMBER OF CARTESIAN ATOMIC ORBITALS=        154
 NUMBER OF SPHERICAL CONTAMINANTS DROPPED=     8
 NUMBER OF LINEARLY DEPENDENT MOS DROPPED=     0
 TOTAL NUMBER OF MOS IN VARIATION SPACE=     146
 ...... END OF INITIAL ORBITAL SELECTION ......
 CPU     0: STEP CPU TIME=     0.01 TOTAL CPU TIME=         23.9 (      0.4 MIN)
 TOTAL WALL CLOCK TIME=         24.4 SECONDS, CPU UTILIZATION IS    98.34%

          ---------------------------
                  UHF SCF CALCULATION
          ---------------------------

 FINAL UHF ENERGY IS     -155.3086942506 AFTER   1 ITERATIONS
 ...... END OF UHF CALCULATION ......
 CPU     0: STEP CPU TIME=     0.08 TOTAL CPU TIME=         24.0 (      0.4 MIN)
 TOTAL WALL CLOCK TIME=         24.4 SECONDS, CPU UTILIZATION IS    98.32%

          -------------
          GUESS OPTIONS
          -------------
          GUESS =MOSAVED           NORB  =       0          NORDER=       0
          MIX   =       F          PRTMO =       F          PUNMO =       F
          TOLZ  = 1.0E-08          TOLE  = 1.0E-05
          SYMDEN=       F          PURIFY=       F

 INITIAL GUESS ORBITALS GENERATED BY MOSAVED  ROUTINE.

 STATISTICS FOR GENERATION OF SYMMETRY ORBITAL -Q- MATRIX
 NUMBER OF CARTESIAN ATOMIC ORBITALS=        154
 NUMBER OF SPHERICAL CONTAMINANTS DROPPED=     8
 NUMBER OF LINEARLY DEPENDENT MOS DROPPED=     0
 TOTAL NUMBER OF MOS IN VARIATION SPACE=     146
 ...... END OF INITIAL ORBITAL SELECTION ......
 CPU     0: STEP CPU TIME=     0.01 TOTAL CPU TIME=         24.0 (      0.4 MIN)
 TOTAL WALL CLOCK TIME=         24.4 SECONDS, CPU UTILIZATION IS    98.32%

          ---------------------------
                  UHF SCF CALCULATION
          ---------------------------

 DIRECT SCF CALCULATION, SCHWRZ=T   FDIFF=T
 SCHWARZ INEQUALITY OVERHEAD:     11935 INTEGRALS, T=        0.00

 FINAL UHF ENERGY IS     -332.2187146397 AFTER   1 ITERATIONS
 ...... END OF UHF CALCULATION ......
 CPU     0: STEP CPU TIME=     0.28 TOTAL CPU TIME=         24.3 (      0.4 MIN)
 TOTAL WALL CLOCK TIME=         24.7 SECONDS, CPU UTILIZATION IS    98.31%

 XEDA STEP ENERGY SUMMATION
 ETOT =       -155.30869425     ENUC =        103.47609147
 EEXCH=        -22.94754437

          --------------------------------------------------
          MONOMER EXCHANGE-REPULSION INTERACTION (ALL BASIS)
          --------------------------------------------------

          -------------
          GUESS OPTIONS
          -------------
          GUESS =MOSAVED           NORB  =       0          NORDER=       0
          MIX   =       F          PRTMO =       F          PUNMO =       F
          TOLZ  = 1.0E-08          TOLE  = 1.0E-05
          SYMDEN=       F          PURIFY=       F

 INITIAL GUESS ORBITALS GENERATED BY MOSAVED  ROUTINE.

 STATISTICS FOR GENERATION OF SYMMETRY ORBITAL -Q- MATRIX
 NUMBER OF CARTESIAN ATOMIC ORBITALS=        154
 NUMBER OF SPHERICAL CONTAMINANTS DROPPED=     8
 NUMBER OF LINEARLY DEPENDENT MOS DROPPED=     0
 TOTAL NUMBER OF MOS IN VARIATION SPACE=     146
 ...... END OF INITIAL ORBITAL SELECTION ......
 CPU     0: STEP CPU TIME=     0.01 TOTAL CPU TIME=         24.3 (      0.4 MIN)
 TOTAL WALL CLOCK TIME=         24.7 SECONDS, CPU UTILIZATION IS    98.31%

          ---------------------------
                  UHF SCF CALCULATION
          ---------------------------

 FINAL UHF ENERGY IS     -154.6293487505 AFTER   1 ITERATIONS
 ...... END OF UHF CALCULATION ......
 CPU     0: STEP CPU TIME=     0.08 TOTAL CPU TIME=         24.4 (      0.4 MIN)
 TOTAL WALL CLOCK TIME=         24.8 SECONDS, CPU UTILIZATION IS    98.29%

 XEDA STEP ENERGY SUMMATION
 ETOT =       -154.62934875     ENUC =        103.47609147

          --------------------------------
          RESULTS OF INTERACTION ANALYSIS
          --------------------------------

     ENERGY TERMS
     T   ELECTRON KINETIC AND COULOMB POTENTIAL
     X   E-E EXCHANGE COMBINE WITH DIAGNANAL VALUE
     N   NUCLEUS-NUCLEUS REPULSION ENERGY

 --------------
 MONOMER ENERGY
 --------------

 MONOMER    1

                   OWN BASIS           ALL BASIS

 T              -93.93138277        -93.93157823
 X              -11.31269667        -11.31305864
 N               27.86692048         27.86692048
 EC              -0.47438463         -0.47492525
 E              -77.85154359        -77.85264163

 MONOMER    2

                   OWN BASIS           ALL BASIS

 T              -93.93136845        -93.93156195
 X              -11.31269431        -11.31305416
 N               27.86690276         27.86690276
 EC              -0.47438773         -0.47494753
 E              -77.85154774        -77.85266089

 ------------------------------------------------------------
 SUPER MOLECULE ENERGY  USING NON-ANTISYMMETRIC WAVEFUNCTION
 (ELECTROSTATIC ENERGY: T N CHANGE)
 ------------------------------------------------------------

              FROM OWN BASIS      FROM ALL BASIS
 T             -235.83161179       -235.83724135
 X              -22.62539098        -22.62611281
 N              103.47609147        103.47609147
 E             -154.98091130       -154.98726269

 ----------------------------------------------------------------------
 SUPER MOLECULE ENERGY  USING ANTISYMMETRIC NONORTHONORMAL WAVEFUNCTION
 (EXCHANGE ENERGY: ONLY X CHANGES)
 ----------------------------------------------------------------------

              FROM OWN BASIS      FROM ALL BASIS
 T             -235.83161179       -235.83724135
 X              -22.94703069        -22.94754437
 N              103.47609147        103.47609147
 E             -155.30255101       -155.30869425

 -----------------------------------------------------------------------
 SUPER MOLECULE ENERGY  USING ANTISYMMETRIC AND ORTHONORMAL WAVEFUNCTION
 (REPULSION ENERGY: T X CHANGE)
 -----------------------------------------------------------------------

              FROM OWN BASIS      FROM ALL BASIS
 T+X           -258.10059785       -258.10544022
 N              103.47609147        103.47609147
 E             -154.62450638       -154.62934875

 ---------------------------------------------
 SUPER MOLECULE ENERGY  USING SCF WAVEFUNCTION
 (POLARIZATION ENERGY: T X CHANGE)
 ---------------------------------------------
 T+X           -258.38559434
 N              103.47609147
 EC              -0.98636367
 E             -155.89586654


                   *******************************
                   SUMMARY OF INTERACTION ENERGIES
                     XEDA IN XIAMEN UNIVERSITY    
                    - ZHEN TANG AND PEIFENG SU -  
                   *******************************


 -------------
 OWN BASIS SET                                       HARTREE          KCAL/MOL
 -------------
 ELECTROSTATIC ENERGY                  ES=         -0.226592           -142.19
 EXCHANGE ENERGY                       EX=         -0.321640           -201.83
 REPULSION ENERGY                     REP=          0.678045            425.48
 POLARIZATION ENERGY                  POL=         -0.284996           -178.84
 ELECTRON CORRELATION                CORR=         -0.037591            -23.59
 TOTAL INTERACTION ENERGY               E=         -0.192775           -120.97
  

 -------------
 ALL BASIS SET                                       HARTREE          KCAL/MOL
 -------------
 ELECTROSTATIC ENERGY                  ES=         -0.231833           -145.48
 EXCHANGE ENERGY                       EX=         -0.321432           -201.70
 REPULSION ENERGY                     REP=          0.679346            426.30
 POLARIZATION ENERGY                  POL=         -0.280154           -175.80
 ELECTRON CORRELATION                CORR=         -0.036491            -22.90
 TOTAL INTERACTION ENERGY               E=         -0.190564           -119.58
  

                     ***************************
                     END OF INTERACTION ANALYSIS
                     ***************************

              1301896  WORDS OF DYNAMIC MEMORY USED
 EXECUTION OF GAMESS TERMINATED NORMALLY 14:32:23 25-DEC-2023    
 DDI: 263640 bytes (0.3 MB / 0 MWords) used by master data server.

 ----------------------------------------
 CPU timing information for all processes
 ========================================
 0: 23.656 + 0.748 = 24.404
 1: 23.553 + 0.556 = 24.110
 2: 23.488 + 0.638 = 24.126
 3: 23.527 + 0.536 = 24.64
 4: 23.520 + 0.595 = 24.115
 5: 23.483 + 0.587 = 24.70
 6: 23.514 + 0.595 = 24.110
 7: 23.531 + 0.505 = 24.36
 8: 23.525 + 0.622 = 24.148
 9: 23.481 + 0.559 = 24.40
 10: 23.488 + 0.606 = 24.94
 11: 23.523 + 0.542 = 24.66
 12: 23.519 + 0.622 = 24.142
 13: 23.493 + 0.562 = 24.55
 14: 23.467 + 0.570 = 24.37
 15: 23.545 + 0.512 = 24.58
 ----------------------------------------
 ddikick.x: exited gracefully.
----- accounting info -----
Files used on the master node w012 were:
-rw-r--r-- 1 xacs0647 10000  2703863 Dec 25 14:32 /job_dir/4_1685754/4.dat
-rw-r--r-- 1 xacs0647 10000      238 Dec 25 14:32 /job_dir/4_1685754/4.err
-rw-r--r-- 1 xacs0647 10000      837 Dec 25 14:31 /job_dir/4_1685754/4.F05
-rw-r--r-- 1 xacs0647 10000 52024624 Dec 25 14:32 /job_dir/4_1685754/4.F08
-rw-r--r-- 1 xacs0647 10000 52384656 Dec 25 14:32 /job_dir/4_1685754/4.F08.001
-rw-r--r-- 1 xacs0647 10000 53824784 Dec 25 14:32 /job_dir/4_1685754/4.F08.002
-rw-r--r-- 1 xacs0647 10000 50044448 Dec 25 14:32 /job_dir/4_1685754/4.F08.003
-rw-r--r-- 1 xacs0647 10000 50404480 Dec 25 14:32 /job_dir/4_1685754/4.F08.004
-rw-r--r-- 1 xacs0647 10000 45724064 Dec 25 14:32 /job_dir/4_1685754/4.F08.005
-rw-r--r-- 1 xacs0647 10000 49504400 Dec 25 14:32 /job_dir/4_1685754/4.F08.006
-rw-r--r-- 1 xacs0647 10000 49504400 Dec 25 14:32 /job_dir/4_1685754/4.F08.007
-rw-r--r-- 1 xacs0647 10000 52744688 Dec 25 14:32 /job_dir/4_1685754/4.F08.008
-rw-r--r-- 1 xacs0647 10000 48424304 Dec 25 14:32 /job_dir/4_1685754/4.F08.009
-rw-r--r-- 1 xacs0647 10000 55444928 Dec 25 14:32 /job_dir/4_1685754/4.F08.010
-rw-r--r-- 1 xacs0647 10000 49864432 Dec 25 14:32 /job_dir/4_1685754/4.F08.011
-rw-r--r-- 1 xacs0647 10000 52024624 Dec 25 14:32 /job_dir/4_1685754/4.F08.012
-rw-r--r-- 1 xacs0647 10000 51124544 Dec 25 14:32 /job_dir/4_1685754/4.F08.013
-rw-r--r-- 1 xacs0647 10000 44823984 Dec 25 14:32 /job_dir/4_1685754/4.F08.014
-rw-r--r-- 1 xacs0647 10000 48064272 Dec 25 14:32 /job_dir/4_1685754/4.F08.015
-rw-r--r-- 1 xacs0647 10000  5758720 Dec 25 14:32 /job_dir/4_1685754/4.F10
-rw-r--r-- 1 xacs0647 10000      837 Dec 25 14:31 /job_dir/4_1685754/4.inp
-rw-r--r-- 1 xacs0647 10000  2403385 Dec 25 14:32 /job_dir/4_1685754/4.out
Mon Dec 25 14:32:26 CST 2023
0.094u 0.057s 0:28.00 0.5%	0+0k 0+32io 0pf+0w
