----- GAMESS execution script 'rungms' -----
This job is running on host w014
under operating system Linux at Mon Dec 25 14:31:58 CST 2023
Available scratch disk space (Kbyte units) at beginning of the job is
Filesystem              1K-blocks    Used Available Use% Mounted on
/dev/mapper/system-root 932514944 2753248 929761696   1% /
GAMESS temporary binary files will be written to /job_dir/5_1685755
GAMESS supplementary output files will be written to /job_dir/5_1685755
Copying input file ./5.inp to your run's scratch directory...
 
Assuming a single but multicore node.
 

 Distributed Data Interface kickoff program.
 Initiating 16 compute processes on 1 nodes to run the following command:
 /share/apps/xeda-apps/xeda-td/gamess.00.x 5 

          *******************************************************
          *                                                     *
          *          GAMESS VERSION = 30 SEP 2020 (R2)          *
          *                                                     *
          *              doi.org/10.1063/5.0005188              *
          *                                                     *
          **************** 64 BIT LINUX VERSION *****************

  GAMESS HAS BEEN MADE POSSIBLE WITH IMPORTANT CONTRIBUTIONS FROM
  THE FOLLOWING INDIVIDUALS (IN ALPHABETICAL ORDER):

     IVANA ADAMOVIC, CHRISTINE AIKENS, TOMOKO AKAMA,
     YURI ALEXEEV, YURIKO AOKI, POOJA ARORA, TOSHIO ASADA,
     ANDREY ASADCHEV, KIM K. BALDRIDGE, PRADIPTA BANDYOPADHYAY,
     MARIA BARYSZ, ROB BELL, JONATHAN BENTZ, COLLEEN BERTONI,
     JERRY A. BOATZ, BRETT BODE, KURT BRORSEN, KURT R. BRORSEN,
     LAIMUTIS BYTAUTAS, CALEB CARLIN, LAURA CARRINGTON,
     GALINA CHABAN, BENOIT CHAMPAGNE, WEI CHEN, MAHITO CHIBA,
     DAN CHIPMAN, CHEOL HO CHOI, TANNER CULPITT,
     DIPAYAN DATTA, PAUL DAY, ALBERT DEFUSCO,
     NUWAN DESILVA, J. EMILIANO DEUSTUA,
     TIM DUDLEY, MICHEL DUPUIS, STEVEN T. ELBERT,
     DMITRI FEDOROV, ALEX FINDLATER, GRAHAM FLETCHER,
     MARK FREITAG, CHRISTIAN FRIEDL, DAVID GARMER,
     IGOR S. GERASIMOV, KURT GLAESEMANN, MARK S. GORDON,
     JEFFREY GOUR, FENG LONG GU, EMILIE B. GUIDEZ,
     ANASTASIA GUNINA, SHARON HAMMES-SCHIFFER, MASATAKE HARUTA,
     KIMIHIKO HIRAO, YASUHIRO IKABATA, TZVETELIN IORDANOV,
     STEPHAN IRLE, KAZUYA ISHIMURA, JOE IVANIC, FRANK JENSEN,
     JAN H. JENSEN, VISVALDAS KAIRYS, MUNEAKI KAMIYA,
     MICHIO KATOUDA, NAOAKI KAWAKAMI, DAN KEMP, BERNARD KIRTMAN,
     KAZUO KITAURA, MARIUSZ KLOBUKOWSKI, MASATO KOBAYASHI,
     PRAKASHAN KORAMBATH, JACEK KORCHOWIEC, SHIRO KOSEKI,
     KAROL KOWALSKI, JIMMY KROMANN, STANISLAW KUCHARSKI,
     HENRY KURTZ, SAROM SOK LEANG, HUI LI, SHUHUA LI, WEI LI,
     JESSE LUTZ, ALEKSANDR O. LYKHIN, MARCIN MAKOWSKI,
     JOANI MATO, NIKITA MATSUNAGA, BENEDETTA MENNUCCI,
     GRANT MERRILL, NORIYUKI MINEZAWA, VLADIMIR MIRONOV,
     EISAKU MIYOSHI, JOHN A. MONTGOMERY JR., HIROTOSHI MORI,
     JONATHAN MULLIN, MONIKA MUSIAL, SHIGERU NAGASE,
     TAKESHI NAGATA, HIROMI NAKAI, TAKAHITO NAKAJIMA,
     YUYA NAKAJIMA, HARUYUKI NAKANO, HIROYA NAKATA, SEAN NEDD,
     HEATHER NETZLOFF, KIET A. NGUYEN, YOSHIO NISHIMOTO,
     BOSILJKA NJEGIC, RYAN OLSON, MIKE PAK, ROBERTO PEVERATI,
     BUU PHAM, PIOTR PIECUCH, ANNA POMOGAEVA, DAVID POOLE,
     SPENCER PRUITT, OLIVIER QUINET, LUKE ROSKOP,
     KLAUS RUEDENBERG, ANDREW SAND, TOSAPORN SATTASATHUCHANA,
     NOZOMI SAWADA, MICHAEL W. SCHMIDT, PATRICK E. SCHNEIDER,
     JUNJI SEINO, PRACHI SHARMA, JUN SHEN, JIM SHOEMAKER,
     YINAN SHU, DEJUN SI, JONATHAN SKONE, LYUDMILA SLIPCHENKO,
     TONY SMITH, JIE SONG, MARK SPACKMAN, CASPER STEINMANN,
     WALT STEVENS, PEIFENG SU, SHUJUN SU, CHET SWALINA,
     TETSUYA TAKETSUGU, ZHEN TAO, NANDUN THELLAMUREGE
     SEIKEN TOKURA, JACOPO TOMASI, TSUGUKI TOUMA, TAKAO TSUNEDA,
     HIROAKI UMEDA, JORGE LUIS GALVEZ VALLEJO, YALI WANG,
     SIMON WEBB, AARON WEST, THERESA L. WINDUS, MARTA WLOCH,
     PENG XU, KIYOSHI YAGI, SUSUMU YANAGISAWA, YANG YANG,
     SOOHAENG YOO, TAKESHI YOSHIKAWA, FEDERICO ZAHARIEV,
     TOBY ZENG

  WHO ARE SUPPORTED BY THEIR INSTITUTION/UNIVERSITY/COMPANY/GROUP
  (IN ALPHABETICAL ORDER):

     EP ANALYTICS, FACULTES UNIVERSITAIRES NOTRE-DAME DE LA PAIX,
     INSTITUTE FOR MOLECULAR SCIENCE, IOWA STATE UNIVERSITY,
     JACKSON STATE UNIVERSITY, JOHANNES KEPLER UNIVERSITY LINZ,
     KYUSHU UNIVERSITY, MICHIGAN STATE UNIVERSITY,
     MIE UNIVERSITY, MOSCOW STATE UNIVERSITY,
     N. COPERNICUS UNIVERSITY, NAGOYA UNIVERSITY,
     NANJING UNIVERSITY, NAT. INST. OF ADVANCED INDUSTRIAL
     SCIENCE AND TECHNOLOGY, NATIONAL INST. OF STANDARDS AND
     TECHNOLOGY, NESMEYANOV INSTITUTE OF ORGANOELEMENT COMPOUNDS
     OF RUSSIAN ACADEMY OF SCIENCES, OSAKA PREFECTURE UNIVERSITY,
     PENNSYLVANIA STATE UNIVERSITY, TOKYO INSTITUTE OF TECHNOLOGY,
     UNIVERSITY OF AARHUS, UNIVERSITY OF ALBERTA,
     UNIVERSITY OF CALIFORNIA AT SANTA BARBARA,
     UNIVERSITY OF COPENHAGEN, UNIVERSITY OF IOWA,
     UNIVERSITY OF MEMPHIS, UNIVERSITY OF MINNESOTA,
     UNIVERSITY OF NEBRASKA, UNIVERSITY OF NEW ENGLAND,
     UNIVERSITY OF NOTRE DAME, UNIVERSITY OF PISA,
     UNIVERSITY OF SILESIA, UNIVERSITY OF TOKYO,
     UNIVERSITY OF ZURICH, WASEDA UNIVERSITY, YALE UNIVERSITY

  GAMESS SOFTWARE MANAGEMENT TEAM FOR THIS RELEASE:
     MARK S. GORDON (TEAM LEAD),
     BRETT BODE (SENIOR ADVISOR),
     GIUSEPPE BARCA,
     COLLEEN BERTONI,
     KRISTOPHER KEIPERT (ADVISOR),
     SAROM S. LEANG (DEVELOPMENT LEAD),
     BUU PHAM,
     JORGE LUIS GALVEZ VALLEJO (WEBSITE ADMINISTRATOR),
     PENG XU


 PARALLEL VERSION RUNNING ON       16 PROCESSORS IN        1 NODES.

 EXECUTION OF GAMESS BEGUN 14:31:58 25-DEC-2023    

            ECHO OF THE FIRST FEW INPUT CARDS -
 INPUT CARD> $CONTRL SCFTYP=UHF RUNTYP=EDA dfttyp=B3LYP ispher=1 icharg=0 mult=1 $END       
 INPUT CARD> $SYSTEM  mwords=150 memddi=150 $END                                            
 INPUT CARD> $BASIS gbasis=accd $END                                                        
 INPUT CARD> $LMOEDA MATOM(1)=5 5 MCHARG(1)=0 0 MMULT(1)=2 -2 edatyp=gks $end               
 INPUT CARD> $scf DIIS=.TRUE. ETHRSH=2.0 SWDIIS=0.005 $end                                  
 INPUT CARD> $data                                                                          
 INPUT CARD> EDA calculation with XEDA 1.0                                                  
 INPUT CARD> c1                                                                             
 INPUT CARD>C   6   -0.1542897927    0.9146193721   -1.3527921875                           
 INPUT CARD>C   6   -0.1542897927    0.9146193721    0.0044804831                           
 INPUT CARD>H   1   -0.1534367114    1.8740793385    0.5360657795                           
 INPUT CARD>H   1   -0.1949217768   -0.0126115373   -1.9318183527                           
 INPUT CARD>H   1   -0.1304509410    1.8432595714   -1.9274986870                           
 INPUT CARD>C   6   -0.1542897927   -0.3062040091    0.8618804312                           
 INPUT CARD>C   6    0.4425182452   -1.4829281512    0.5435537179                           
 INPUT CARD>H   1    1.0176932552   -1.6096542164   -0.3782906601                           
 INPUT CARD>H   1    0.3884363382   -2.3517919329    1.2033832319                           
 INPUT CARD>H   1   -0.6850027109   -0.2208234467    1.8180115258                           
 INPUT CARD> $end                                                                           
  150000000 WORDS OF MEMORY AVAILABLE

     BASIS OPTIONS
     -------------
     GBASIS=ACCD         IGAUSS=       0      POLAR=NONE    
     NDFUNC=       0     NFFUNC=       0     DIFFSP=       F
     NPFUNC=       0      DIFFS=       F     BASNAM=        


     RUN TITLE
     ---------
  EDA calculation with XEDA 1.0                                                  

 THE POINT GROUP OF THE MOLECULE IS C1      
 THE ORDER OF THE PRINCIPAL AXIS IS     0

 ATOM      ATOMIC                      COORDINATES (BOHR)
           CHARGE         X                   Y                   Z
 C           6.0    -0.2915654309        1.7283799963       -2.5564065527
 C           6.0    -0.2915654309        1.7283799963        0.0084668854
 H           1.0    -0.2899533410        3.5414964290        1.0130174346
 H           1.0    -0.3683487472       -0.0238323498       -3.6506073447
 H           1.0    -0.2465165333        3.4832555142       -3.6424443601
 C           6.0    -0.2915654309       -0.5786416735        1.6287178491
 C           6.0     0.8362382280       -2.8023278652        1.0271675864
 H           1.0     1.9231613919       -3.0418054040       -0.7148656913
 H           1.0     0.7340382429       -4.4442423333        2.2740645665
 H           1.0    -1.2944674244       -0.4172958059        3.4355436263

          INTERNUCLEAR DISTANCES (ANGS.)
          ------------------------------

                1 C          2 C          3 H          4 H          5 H     

   1 C       0.0000000    1.3572727 *  2.1185723 *  1.0939284 *  1.0923500 *
   2 C       1.3572727 *  0.0000000    1.0968806 *  2.1472450 *  2.1437081 *
   3 H       2.1185723 *  1.0968806 *  0.0000000    3.1067307    2.4638645 *
   4 H       1.0939284 *  2.1472450 *  3.1067307    0.0000000    1.8569956 *
   5 H       1.0923500 *  2.1437081 *  2.4638645 *  1.8569956 *  0.0000000  
   6 C       2.5288702 *  1.4918259 *  2.2044935 *  2.8093772 *  3.5215618  
   7 C       3.1145693    2.5288365 *  3.4095040    2.9488350 *  4.1830513  
   8 H       2.9487548 *  2.8092731 *  3.7873464    2.5366176 *  3.9548570  
   9 H       4.1830643    3.5215568    4.3124154    3.9549413    5.2602398  
  10 H       3.4095282    2.2044912 *  2.5128798 *  3.7874471    4.3124022  

                6 C          7 C          8 H          9 H         10 H     

   1 C       2.5288702 *  3.1145693    2.9487548 *  4.1830643    3.4095282  
   2 C       1.4918259 *  2.5288365 *  2.8092731 *  3.5215568    2.2044912 *
   3 H       2.2044935 *  3.4095040    3.7873464    4.3124154    2.5128798 *
   4 H       2.8093772 *  2.9488350 *  2.5366176 *  3.9549413    3.7874471  
   5 H       3.5215618    4.1830513    3.9548570    5.2602398    4.3124022  
   6 C       0.0000000    1.3572735 *  2.1472194 *  2.1437364 *  1.0968741 *
   7 C       1.3572735 *  0.0000000    1.0939300 *  1.0923480 *  2.1185973 *
   8 H       2.1472194 *  1.0939300 *  0.0000000    1.8569935 *  3.1067294  
   9 H       2.1437364 *  1.0923480 *  1.8569935 *  0.0000000    2.4639533 *
  10 H       1.0968741 *  2.1185973 *  3.1067294    2.4639533 *  0.0000000  

  * ... LESS THAN  3.000


     ATOMIC BASIS SET
     ----------------
 THE CONTRACTED PRIMITIVE FUNCTIONS HAVE BEEN UNNORMALIZED
 THE CONTRACTED BASIS FUNCTIONS ARE NOW NORMALIZED TO UNITY

  SHELL TYPE  PRIMITIVE        EXPONENT          CONTRACTION COEFFICIENT(S)

 C         

      1   S       1          6665.0000000    0.000691583963
      1   S       2          1000.0000000    0.005325796153
      1   S       3           228.0000000    0.027060721042
      1   S       4            64.7100000    0.101656846141
      1   S       5            21.0600000    0.274574823617
      1   S       6             7.4950000    0.448294318924
      1   S       7             2.7970000    0.284902610715
      1   S       8             0.5215000    0.015194859206

      2   S       9          6665.0000000   -0.000293269653
      2   S      10          1000.0000000   -0.002318035474
      2   S      11           228.0000000   -0.011499786039
      2   S      12            64.7100000   -0.046826727010
      2   S      13            21.0600000   -0.128466168750
      2   S      14             7.4950000   -0.301266272463
      2   S      15             2.7970000   -0.255630702330
      2   S      16             0.5215000    1.093793361012

      3   S      17             0.1596000    1.000000000000

      4   P      18             9.4390000    0.056979251590
      4   P      19             2.0020000    0.313207211501
      4   P      20             0.5456000    0.760376741738

      5   P      21             0.1517000    1.000000000000

      6   D      22             0.5500000    1.000000000000

      7   S      23             0.0469000    1.000000000000

      8   P      24             0.0404100    1.000000000000

      9   D      25             0.1510000    1.000000000000

 C         

     10   S      26          6665.0000000    0.000691583963
     10   S      27          1000.0000000    0.005325796153
     10   S      28           228.0000000    0.027060721042
     10   S      29            64.7100000    0.101656846141
     10   S      30            21.0600000    0.274574823617
     10   S      31             7.4950000    0.448294318924
     10   S      32             2.7970000    0.284902610715
     10   S      33             0.5215000    0.015194859206

     11   S      34          6665.0000000   -0.000293269653
     11   S      35          1000.0000000   -0.002318035474
     11   S      36           228.0000000   -0.011499786039
     11   S      37            64.7100000   -0.046826727010
     11   S      38            21.0600000   -0.128466168750
     11   S      39             7.4950000   -0.301266272463
     11   S      40             2.7970000   -0.255630702330
     11   S      41             0.5215000    1.093793361012

     12   S      42             0.1596000    1.000000000000

     13   P      43             9.4390000    0.056979251590
     13   P      44             2.0020000    0.313207211501
     13   P      45             0.5456000    0.760376741738

     14   P      46             0.1517000    1.000000000000

     15   D      47             0.5500000    1.000000000000

     16   S      48             0.0469000    1.000000000000

     17   P      49             0.0404100    1.000000000000

     18   D      50             0.1510000    1.000000000000

 H         

     19   S      51            13.0100000    0.033498726390
     19   S      52             1.9620000    0.234800801174
     19   S      53             0.4446000    0.813682957883

     20   S      54             0.1220000    1.000000000000

     21   P      55             0.7270000    1.000000000000

     22   S      56             0.0297400    1.000000000000

     23   P      57             0.1410000    1.000000000000

 H         

     24   S      58            13.0100000    0.033498726390
     24   S      59             1.9620000    0.234800801174
     24   S      60             0.4446000    0.813682957883

     25   S      61             0.1220000    1.000000000000

     26   P      62             0.7270000    1.000000000000

     27   S      63             0.0297400    1.000000000000

     28   P      64             0.1410000    1.000000000000

 H         

     29   S      65            13.0100000    0.033498726390
     29   S      66             1.9620000    0.234800801174
     29   S      67             0.4446000    0.813682957883

     30   S      68             0.1220000    1.000000000000

     31   P      69             0.7270000    1.000000000000

     32   S      70             0.0297400    1.000000000000

     33   P      71             0.1410000    1.000000000000

 C         

     34   S      72          6665.0000000    0.000691583963
     34   S      73          1000.0000000    0.005325796153
     34   S      74           228.0000000    0.027060721042
     34   S      75            64.7100000    0.101656846141
     34   S      76            21.0600000    0.274574823617
     34   S      77             7.4950000    0.448294318924
     34   S      78             2.7970000    0.284902610715
     34   S      79             0.5215000    0.015194859206

     35   S      80          6665.0000000   -0.000293269653
     35   S      81          1000.0000000   -0.002318035474
     35   S      82           228.0000000   -0.011499786039
     35   S      83            64.7100000   -0.046826727010
     35   S      84            21.0600000   -0.128466168750
     35   S      85             7.4950000   -0.301266272463
     35   S      86             2.7970000   -0.255630702330
     35   S      87             0.5215000    1.093793361012

     36   S      88             0.1596000    1.000000000000

     37   P      89             9.4390000    0.056979251590
     37   P      90             2.0020000    0.313207211501
     37   P      91             0.5456000    0.760376741738

     38   P      92             0.1517000    1.000000000000

     39   D      93             0.5500000    1.000000000000

     40   S      94             0.0469000    1.000000000000

     41   P      95             0.0404100    1.000000000000

     42   D      96             0.1510000    1.000000000000

 C         

     43   S      97          6665.0000000    0.000691583963
     43   S      98          1000.0000000    0.005325796153
     43   S      99           228.0000000    0.027060721042
     43   S     100            64.7100000    0.101656846141
     43   S     101            21.0600000    0.274574823617
     43   S     102             7.4950000    0.448294318924
     43   S     103             2.7970000    0.284902610715
     43   S     104             0.5215000    0.015194859206

     44   S     105          6665.0000000   -0.000293269653
     44   S     106          1000.0000000   -0.002318035474
     44   S     107           228.0000000   -0.011499786039
     44   S     108            64.7100000   -0.046826727010
     44   S     109            21.0600000   -0.128466168750
     44   S     110             7.4950000   -0.301266272463
     44   S     111             2.7970000   -0.255630702330
     44   S     112             0.5215000    1.093793361012

     45   S     113             0.1596000    1.000000000000

     46   P     114             9.4390000    0.056979251590
     46   P     115             2.0020000    0.313207211501
     46   P     116             0.5456000    0.760376741738

     47   P     117             0.1517000    1.000000000000

     48   D     118             0.5500000    1.000000000000

     49   S     119             0.0469000    1.000000000000

     50   P     120             0.0404100    1.000000000000

     51   D     121             0.1510000    1.000000000000

 H         

     52   S     122            13.0100000    0.033498726390
     52   S     123             1.9620000    0.234800801174
     52   S     124             0.4446000    0.813682957883

     53   S     125             0.1220000    1.000000000000

     54   P     126             0.7270000    1.000000000000

     55   S     127             0.0297400    1.000000000000

     56   P     128             0.1410000    1.000000000000

 H         

     57   S     129            13.0100000    0.033498726390
     57   S     130             1.9620000    0.234800801174
     57   S     131             0.4446000    0.813682957883

     58   S     132             0.1220000    1.000000000000

     59   P     133             0.7270000    1.000000000000

     60   S     134             0.0297400    1.000000000000

     61   P     135             0.1410000    1.000000000000

 H         

     62   S     136            13.0100000    0.033498726390
     62   S     137             1.9620000    0.234800801174
     62   S     138             0.4446000    0.813682957883

     63   S     139             0.1220000    1.000000000000

     64   P     140             0.7270000    1.000000000000

     65   S     141             0.0297400    1.000000000000

     66   P     142             0.1410000    1.000000000000

 TOTAL NUMBER OF BASIS SET SHELLS             =   66
 NUMBER OF CARTESIAN GAUSSIAN BASIS FUNCTIONS =  154
 NOTE: THIS RUN WILL RESTRICT THE MO VARIATION SPACE TO SPHERICAL HARMONICS.
 THE NUMBER OF ORBITALS KEPT IN THE VARIATIONAL SPACE WILL BE PRINTED LATER.
 NUMBER OF ELECTRONS                          =   30
 CHARGE OF MOLECULE                           =    0
 SPIN MULTIPLICITY                            =    1
 NUMBER OF OCCUPIED ORBITALS (ALPHA)          =   15
 NUMBER OF OCCUPIED ORBITALS (BETA )          =   15
 TOTAL NUMBER OF ATOMS                        =   10
 THE NUCLEAR REPULSION ENERGY IS      103.4792073994

 SELECTED MURRAY-HANDY-LAMING RADIAL GRID

 LEGACY BECKE'S FUZZY CELL METHOD

 SELECTED ORIGINAL BECKE'S PARTITION FUNCTION

     LEBEDEV GRID-BASED DFT OPTIONS
     ------------------------------
     DFTTYP=B3LYP   
     NRAD  =      96     NLEB  =     302
     NRAD0 =      24     NLEB0 =     110
     SWOFF =    5.00E-03 (PURE SCF -> DFT)
     SWITCH=    3.00E-04 (COARSE -> TIGHT GRID)
     THRESH=    0.00E+00 GTHRE=    1.00E+00

 GRIMME'S EMPIRICAL DISPERSION CORRECTION= F

     $CONTRL OPTIONS
     ---------------
 SCFTYP=UHF          RUNTYP=LMOEDA       EXETYP=RUN     
 MPLEVL=       0     CITYP =NONE         CCTYP =NONE         VBTYP =NONE    
 DFTTYP=B3LYP        TDDFT =NONE    
 MULT  =       1     ICHARG=       0     NZVAR =       0     COORD =UNIQUE  
 PP    =NONE         RELWFN=NONE         LOCAL =NONE         NUMGRD=       F
 ISPHER=       1     NOSYM =       0     MAXIT =      30     UNITS =ANGS    
 PLTORB=       F     MOLPLT=       F     AIMPAC=       F     FRIEND=        
 NPRINT=       7     IREST =       0     GEOM  =INPUT   
 NORMF =       0     NORMP =       0     ITOL  =      20     ICUT  =       9
 INTTYP=BEST         GRDTYP=BEST         QMTTOL= 1.0E-06

     $SYSTEM OPTIONS
     ---------------
  REPLICATED MEMORY=   150000000 WORDS (ON EVERY NODE).
 DISTRIBUTED MEMDDI=         150 MILLION WORDS IN AGGREGATE,
 MEMDDI DISTRIBUTED OVER  16 PROCESSORS IS     9375000 WORDS/PROCESSOR.
 TOTAL MEMORY REQUESTED ON EACH PROCESSOR=   159375000 WORDS.
 TIMLIM=      525600.00 MINUTES, OR     365.0 DAYS.
 PARALL= T  BALTYP=  DLB     KDIAG=    0  COREFL= F
 MXSEQ2=     300 MXSEQ3=     150  mem10=         0  mem22=         0

 Using Gaussians for PCM contribution to MEP, params: 0.10000E+01 0.10000E-07

          ----------------
          PROPERTIES INPUT
          ----------------

     MOMENTS            FIELD           POTENTIAL          DENSITY
 IEMOM =       1   IEFLD =       0   IEPOT =       0   IEDEN =       0
 WHERE =COMASS     WHERE =NUCLEI     WHERE =NUCLEI     WHERE =NUCLEI  
 OUTPUT=BOTH       OUTPUT=BOTH       OUTPUT=BOTH       OUTPUT=BOTH    
 IEMINT=       0   IEFINT=       0                     IEDINT=       0
                                                       MORB  =       0
          EXTRAPOLATION IN EFFECT
          DIIS IN EFFECT
          DIIS or SOSCF will be reset if energy rises
 ORBITAL PRINTING OPTION: NPREO=     1   154     2     1

     -------------------------------
     INTEGRAL TRANSFORMATION OPTIONS
     -------------------------------
     NWORD  =            0
     CUTOFF = 1.0E-09     MPTRAN =       0
     DIRTRF =       F     AOINTS =DUP     

          -----------------------------
          LOCALIZATION INPUT PARAMETERS
          -----------------------------
           LOCAL=RUEDNBRG      NOUTA=       0
          PRTLOC=       F      NOUTB=       0
          MAXLOC=     250     CVGLOC=1.00E-06
           FCORE=       F     SYMLOC=       F
          MOIDON=       F     EDCOMP=       F
          DIPDCM=       F      NPROT=       0
          QADDCM=       F     DEPRNT=       F
          POLNUM=       F     ORIENT=       F
          POLDYN=       F      VMTOL=1.50E-01
          NPRDTL=       2     IBOYAL=       1

          ----------------------
          INTEGRAL INPUT OPTIONS
          ----------------------
 NOPK  =       1 NORDER=       0 SCHWRZ=       T

     ------------------------------------------
     THE POINT GROUP IS C1 , NAXIS= 0, ORDER= 1
     ------------------------------------------

 -- VARIATIONAL SPACE WILL BE RESTRICTED TO PURE SPHERICAL HARMONICS ONLY --
 AFTER EXCLUDING CONTAMINANT COMBINATIONS FROM THE CARTESIAN GAUSSIAN BASIS
 SET, THE NUMBER OF SPHERICAL HARMONICS KEPT IN THE VARIATION SPACE IS  146

     DIMENSIONS OF THE SYMMETRY SUBSPACES ARE
 A   =  146

 ..... DONE SETTING UP THE RUN .....
 CPU     0: STEP CPU TIME=     0.03 TOTAL CPU TIME=          0.0 (      0.0 MIN)
 TOTAL WALL CLOCK TIME=          0.0 SECONDS, CPU UTILIZATION IS    81.28%

          --------------
          GKSEDA OPTIONS
          --------------
          NMOL  =       2          EDATYP=GKS     
          SUPBAS=       T          RDVECM=       F          ITRTN =       T

 *******************
 GKSEDA IS BEGINNING
 *******************

 NMOL =  2

 MONOMER     ATOM   CHARGE ELECTRON MULTIPLE
 -------------------------------------------
       1        5        0       15        2
       2        5        0       15       -2
 -------------------------------------------

 SAVING MOL INFO REQUIRES    598670 WORDS OF MEMORY.

          ********************
          1 ELECTRON INTEGRALS
          ********************
 ...... END OF ONE-ELECTRON INTEGRALS ......
 CPU     0: STEP CPU TIME=     0.01 TOTAL CPU TIME=          0.0 (      0.0 MIN)
 TOTAL WALL CLOCK TIME=          0.0 SECONDS, CPU UTILIZATION IS    83.13%

          -------------
          GUESS OPTIONS
          -------------
          GUESS =HUCKEL            NORB  =       0          NORDER=       0
          MIX   =       F          PRTMO =       F          PUNMO =       F
          TOLZ  = 1.0E-08          TOLE  = 1.0E-05
          SYMDEN=       F          PURIFY=       F

 INITIAL GUESS ORBITALS GENERATED BY HUCKEL   ROUTINE.
 HUCKEL GUESS REQUIRES    180842 WORDS.

 STATISTICS FOR GENERATION OF SYMMETRY ORBITAL -Q- MATRIX
 NUMBER OF CARTESIAN ATOMIC ORBITALS=        154
 NUMBER OF SPHERICAL CONTAMINANTS DROPPED=     8
 NUMBER OF LINEARLY DEPENDENT MOS DROPPED=     0
 TOTAL NUMBER OF MOS IN VARIATION SPACE=     146

 SYMMETRIES FOR INITIAL GUESS ORBITALS FOLLOW.  ALPHA SET(S).
    15 ORBITALS ARE OCCUPIED (    4 CORE ORBITALS).
     5=A        6=A        7=A        8=A        9=A       10=A       11=A   
    12=A       13=A       14=A       15=A       16=A       17=A       18=A   
    19=A       20=A       21=A       22=A       23=A       24=A       25=A   

 SYMMETRIES FOR INITIAL GUESS ORBITALS FOLLOW.   BETA SET(S).
    15 ORBITALS ARE OCCUPIED (    4 CORE ORBITALS).
     5=A        6=A        7=A        8=A        9=A       10=A       11=A   
    12=A       13=A       14=A       15=A       16=A       17=A       18=A   
    19=A       20=A       21=A       22=A       23=A       24=A       25=A   
 ...... END OF INITIAL ORBITAL SELECTION ......
 CPU     0: STEP CPU TIME=     0.01 TOTAL CPU TIME=          0.1 (      0.0 MIN)
 TOTAL WALL CLOCK TIME=          0.1 SECONDS, CPU UTILIZATION IS    86.97%

          -------------------------
          MONOMER  1 WITH OWN BASIS
          -------------------------

     ------------------------------------------
     THE POINT GROUP IS C1 , NAXIS= 0, ORDER= 1
     ------------------------------------------

 -- VARIATIONAL SPACE WILL BE RESTRICTED TO PURE SPHERICAL HARMONICS ONLY --
 AFTER EXCLUDING CONTAMINANT COMBINATIONS FROM THE CARTESIAN GAUSSIAN BASIS
 SET, THE NUMBER OF SPHERICAL HARMONICS KEPT IN THE VARIATION SPACE IS   73

     DIMENSIONS OF THE SYMMETRY SUBSPACES ARE
 A   =   73

          ********************
          1 ELECTRON INTEGRALS
          ********************
 ...... END OF ONE-ELECTRON INTEGRALS ......
 CPU     0: STEP CPU TIME=     0.01 TOTAL CPU TIME=          0.1 (      0.0 MIN)
 TOTAL WALL CLOCK TIME=          0.1 SECONDS, CPU UTILIZATION IS    87.87%

          -------------
          GUESS OPTIONS
          -------------
          GUESS =HUCKEL            NORB  =       0          NORDER=       0
          MIX   =       F          PRTMO =       F          PUNMO =       F
          TOLZ  = 1.0E-08          TOLE  = 1.0E-05
          SYMDEN=       F          PURIFY=       F

 INITIAL GUESS ORBITALS GENERATED BY HUCKEL   ROUTINE.
 HUCKEL GUESS REQUIRES     47410 WORDS.

 STATISTICS FOR GENERATION OF SYMMETRY ORBITAL -Q- MATRIX
 NUMBER OF CARTESIAN ATOMIC ORBITALS=         77
 NUMBER OF SPHERICAL CONTAMINANTS DROPPED=     4
 NUMBER OF LINEARLY DEPENDENT MOS DROPPED=     0
 TOTAL NUMBER OF MOS IN VARIATION SPACE=      73

 SYMMETRIES FOR INITIAL GUESS ORBITALS FOLLOW.  ALPHA SET(S).
     8 ORBITALS ARE OCCUPIED (    2 CORE ORBITALS).
     3=A        4=A        5=A        6=A        7=A        8=A        9=A   
    10=A       11=A       12=A       13=A       14=A       15=A       16=A   
    17=A       18=A   

 SYMMETRIES FOR INITIAL GUESS ORBITALS FOLLOW.   BETA SET(S).
     7 ORBITALS ARE OCCUPIED (    2 CORE ORBITALS).
     3=A        4=A        5=A        6=A        7=A        8=A        9=A   
    10=A       11=A       12=A       13=A       14=A       15=A       16=A   
    17=A   
 ...... END OF INITIAL ORBITAL SELECTION ......
 CPU     0: STEP CPU TIME=     0.00 TOTAL CPU TIME=          0.1 (      0.0 MIN)
 TOTAL WALL CLOCK TIME=          0.1 SECONDS, CPU UTILIZATION IS    88.37%

                    ----------------------
                    AO INTEGRAL TECHNOLOGY
                    ----------------------
     S,P,L SHELL ROTATED AXIS INTEGRALS, REPROGRAMMED BY
        KAZUYA ISHIMURA (IMS) AND JOSE SIERRA (SYNSTAR).
     S,P,D,L SHELL ROTATED AXIS INTEGRALS PROGRAMMED BY
        KAZUYA ISHIMURA (INSTITUTE FOR MOLECULAR SCIENCE).
     S,P,D,F,G SHELL TO TOTAL QUARTET ANGULAR MOMENTUM SUM 5,
        ERIC PROGRAM BY GRAHAM FLETCHER (ELORET AND NASA ADVANCED
        SUPERCOMPUTING DIVISION, AMES RESEARCH CENTER).
     S,P,D,F,G,L SHELL GENERAL RYS QUADRATURE PROGRAMMED BY
        MICHEL DUPUIS (PACIFIC NORTHWEST NATIONAL LABORATORY).

          --------------------
          2 ELECTRON INTEGRALS
          --------------------

 THE -PK- OPTION IS OFF, THE INTEGRALS ARE NOT IN SUPERMATRIX FORM.
 STORING   15000 INTEGRALS/RECORD ON DISK, USING 12 BYTES/INTEGRAL.
 TWO ELECTRON INTEGRAL EVALUATION REQUIRES   90957 WORDS OF MEMORY.
 SCHWARZ INEQUALITY OVERHEAD:      3003 INTEGRALS, T=        0.00
 II,JST,KST,LST =  1  1  1  1 NREC =         1 INTLOC =    1
 II,JST,KST,LST =  2  1  1  1 NREC =         1 INTLOC =    1
 II,JST,KST,LST =  3  1  1  1 NREC =         1 INTLOC =    1
 II,JST,KST,LST =  4  1  1  1 NREC =         1 INTLOC =    1
 II,JST,KST,LST =  5  1  1  1 NREC =         1 INTLOC =    1
 II,JST,KST,LST =  6  1  1  1 NREC =         1 INTLOC =    1
 II,JST,KST,LST =  7  1  1  1 NREC =         1 INTLOC =    4
 II,JST,KST,LST =  8  1  1  1 NREC =         1 INTLOC =   77
 II,JST,KST,LST =  9  1  1  1 NREC =         1 INTLOC =   77
 II,JST,KST,LST = 10  1  1  1 NREC =         1 INTLOC = 1298
 II,JST,KST,LST = 11  1  1  1 NREC =         1 INTLOC = 1298
 II,JST,KST,LST = 12  1  1  1 NREC =         1 INTLOC = 1298
 II,JST,KST,LST = 13  1  1  1 NREC =         1 INTLOC = 1447
 II,JST,KST,LST = 14  1  1  1 NREC =         1 INTLOC = 4995
 II,JST,KST,LST = 15  1  1  1 NREC =         1 INTLOC = 4995
 II,JST,KST,LST = 16  1  1  1 NREC =         1 INTLOC = 7083
 II,JST,KST,LST = 17  1  1  1 NREC =         1 INTLOC = 8219
 II,JST,KST,LST = 18  1  1  1 NREC =         1 INTLOC =11978
 II,JST,KST,LST = 19  1  1  1 NREC =         3 INTLOC =  866
 II,JST,KST,LST = 20  1  1  1 NREC =         3 INTLOC =  866
 II,JST,KST,LST = 21  1  1  1 NREC =         3 INTLOC =  866
 II,JST,KST,LST = 22  1  1  1 NREC =         3 INTLOC =  866
 II,JST,KST,LST = 23  1  1  1 NREC =         3 INTLOC =11697
 II,JST,KST,LST = 24  1  1  1 NREC =         5 INTLOC =10606
 II,JST,KST,LST = 25  1  1  1 NREC =         6 INTLOC = 3865
 II,JST,KST,LST = 26  1  1  1 NREC =         7 INTLOC = 2436
 II,JST,KST,LST = 27  1  1  1 NREC =         9 INTLOC =14446
 II,JST,KST,LST = 28  1  1  1 NREC =        10 INTLOC = 4816
 II,JST,KST,LST = 29  1  1  1 NREC =        11 INTLOC = 1444
 II,JST,KST,LST = 30  1  1  1 NREC =        12 INTLOC = 4337
 II,JST,KST,LST = 31  1  1  1 NREC =        12 INTLOC = 8213
 II,JST,KST,LST = 32  1  1  1 NREC =        15 INTLOC =11693
 II,JST,KST,LST = 33  1  1  1 NREC =        16 INTLOC = 3800
 SCHWARZ INEQUALITY TEST SKIPPED           0 INTEGRAL BLOCKS.
 TOTAL NUMBER OF NONZERO TWO-ELECTRON INTEGRALS =             3899819
        269 INTEGRAL RECORDS WERE STORED ON DISK FILE  8.
  ...... END OF TWO-ELECTRON INTEGRALS .....
 CPU     0: STEP CPU TIME=     0.03 TOTAL CPU TIME=          0.1 (      0.0 MIN)
 TOTAL WALL CLOCK TIME=          0.1 SECONDS, CPU UTILIZATION IS    88.16%

          ---------------------------
              U-B3LYP SCF CALCULATION
          ---------------------------

     NUCLEAR ENERGY =        27.8680170071
     MAXIT = 30     NPUNCH=  2     MULT=  2
     EXTRAP=T  DAMP=F  SHIFT=F  RSTRCT=F  DIIS=T  SOSCF=T
         DENSITY MATRIX CONVERGENCE THRESHOLD=  1.00E-05
     COARSE -> FINE DFT GRID SWITCH THRESHOLD=  3.00E-04 (SWITCH IN $DFT)
                   HF -> DFT SWITCH THRESHOLD=  5.00E-03 (SWOFF IN $DFT)
     SOSCF WILL OPTIMIZE     520 ALPHA AND     462 BETA ROTATION ANGLES.
     SOGTOL= 2.500E-01
     MEMORY REQUIRED FOR UHF/ROHF ITERS=    298732 WORDS.

     EXCHANGE FUNCTIONAL   =B88&HFX   
     CORRELATION FUNCTIONAL=LYP88&VWN5
     DFT THRESHOLD         =.690E-08
     GRID CHANGE THRESHOLD =.300E-03
 FOR AN EULER-MACLAURIN QUADRATURE USING  96 RADIAL POINTS:
 SMALLEST GAUSSIAN PRIMITIVE EXPONENT=        0.0297400000 OF TYPE -S-
 ON ATOM NUMBER   3 HAS RADIAL NORMALIZATION=  1.000000
  LARGEST GAUSSIAN PRIMITIVE EXPONENT=     6665.0000000000 OF TYPE -S-
 ON ATOM NUMBER   1 HAS RADIAL NORMALIZATION=  1.000000
 DFT IS SWITCHED OFF, PERFORMING PURE SCF UNTIL SWOFF THRESHOLD IS REACHED.

 ITER EX      TOTAL ENERGY        E CHANGE  DENSITY CHANGE    DIIS ERROR
          * * *   INITIATING DIIS PROCEDURE   * * *
   1  0      -77.1742660938   -77.1742660938   0.500596862   0.356235973
   2  1      -77.3683605042    -0.1940944104   0.154120435   0.054208595
   3  2      -77.3843982116    -0.0160377075   0.031231032   0.026052785
   4  3      -77.3888182766    -0.0044200650   0.022156697   0.011280735
   5  4      -77.3902109276    -0.0013926510   0.012946060   0.008591041
   6  5      -77.3908644064    -0.0006534788   0.024384245   0.008592303
   7  6      -77.3919356764    -0.0010712700   0.063687378   0.008351114
   8  7      -77.3943102698    -0.0023745934   0.114426504   0.006532847
   9  8      -77.3958917022    -0.0015814324   0.070978146   0.002187445
  10  9      -77.3954410409     0.0004506614   0.043739330   0.004237620
  11 10      -77.3959747155    -0.0005336746   0.007689477   0.000769809
  12 11      -77.3959910360    -0.0000163205   0.000381248   0.000093883
 CONVERGED TO SWOFF, SO DFT CALCULATION IS NOW SWITCHED ON.
          * * *   INITIATING DIIS PROCEDURE   * * *
  13 12      -77.8297494323    -0.4337583963   0.395195495   0.062172532
  14 13      -77.8463637500    -0.0166143177   0.062748499   0.016757018
  15 14      -77.8490508894    -0.0026871395   0.024646806   0.011965482
  16 15      -77.8505100403    -0.0014591509   0.050672348   0.007388423
  17 16      -77.8514938120    -0.0009837717   0.009213512   0.003435802
  18 17      -77.8515772588    -0.0000834468   0.006034865   0.001414659
  19 18      -77.8515972488    -0.0000199900   0.002041808   0.000279868
         SWDIIS THRESHOLD HAS BEEN REACHED: SWITCHING DIIS OFF.
          ---------------START SECOND ORDER SCF---------------
  20 19      -77.8515984225    -0.0000011737   0.000137568   0.000022410
  21 20      -77.8515984352    -0.0000000127   0.000156229   0.000023472
  22 21      -77.8515984359    -0.0000000007   0.000065709   0.000021629
  23 22      -77.8515984403    -0.0000000043   0.000008836   0.000002408
  24 23      -77.8515984404    -0.0000000001   0.000012194   0.000001951

          ----------------
          ENERGY CONVERGED
          ----------------
     TIME TO FORM FOCK OPERATORS=       1.2 SECONDS (       0.1 SEC/ITER)
     TIME TO SOLVE SCF EQUATIONS=       0.1 SECONDS (       0.0 SEC/ITER)

 FINAL U-B3LYP ENERGY IS      -77.8515984404 AFTER  24 ITERATIONS
 DFT EXCHANGE + CORRELATION ENERGY =        -9.5245896391
 TOTAL ELECTRON NUMBER             =        14.9999941818

          --------------------
          SPIN SZ   =    0.500
          S-SQUARED =    0.764
          --------------------

  ----- ALPHA SET ----- 

          ------------
          EIGENVECTORS
          ------------

                      1          2          3          4          5
                  -10.2293   -10.2020    -0.7670    -0.5782    -0.4643
                     A          A          A          A          A   
    1  C  1  S    0.011995   1.009647  -0.019635   0.011323  -0.002215
    2  C  1  S   -0.001523   0.022148   0.316160  -0.227423   0.000211
    3  C  1  S    0.040183  -0.073268   0.096331  -0.323212  -0.034431
    4  C  1  X   -0.000017  -0.000013  -0.000181   0.001745   0.009290
    5  C  1  Y   -0.000025  -0.000003   0.008144   0.031233   0.341448
    6  C  1  Z   -0.001000  -0.000356   0.110450   0.207558  -0.208648
    7  C  1  X    0.000121   0.000094   0.000591  -0.000391  -0.000844
    8  C  1  Y   -0.001276  -0.000300   0.023737   0.028213  -0.015586
    9  C  1  Z    0.038730  -0.008919  -0.028715  -0.242194   0.040804
   10  C  1 XX    0.000210  -0.001624  -0.006315   0.001480  -0.001732
   11  C  1 YY    0.000859   0.000834  -0.007538  -0.011271   0.008584
   12  C  1 ZZ   -0.001068   0.000790   0.013853   0.009791  -0.006852
   13  C  1 XY    0.000032   0.000097  -0.000078  -0.000507   0.000194
   14  C  1 XZ    0.000012   0.000022  -0.000001  -0.000152  -0.000340
   15  C  1 YZ    0.000470   0.000062   0.000227   0.002357  -0.006031
   16  C  1  S    0.015201  -0.033846   0.016354   0.137941  -0.061247
   17  C  1  X    0.000058   0.000048  -0.000325  -0.000030  -0.001982
   18  C  1  Y    0.000742   0.000796  -0.003690   0.008921  -0.058510
   19  C  1  Z    0.006198  -0.003665  -0.001993   0.011596  -0.009273
   20  C  1 XX   -0.002138   0.004866   0.006227  -0.007071  -0.006509
   21  C  1 YY   -0.004497   0.001510  -0.008166   0.105901  -0.044937
   22  C  1 ZZ    0.006635  -0.006376   0.001939  -0.098831   0.051446
   23  C  1 XY   -0.000078  -0.000117  -0.001088   0.003654  -0.001565
   24  C  1 XZ   -0.000105  -0.000085   0.000897   0.000341   0.003820
   25  C  1 YZ   -0.003082  -0.001095   0.024687   0.020532   0.104824
   26  C  2  S    1.009987  -0.013572  -0.017067  -0.006409  -0.000336
   27  C  2  S    0.022722  -0.001364   0.307167   0.268853  -0.070906
   28  C  2  S   -0.089967   0.024443   0.252105   0.492536  -0.242766
   29  C  2  X   -0.000016  -0.000005  -0.000414  -0.000145   0.004360
   30  C  2  Y    0.000907   0.000107   0.024801   0.097809   0.256075
   31  C  2  Z   -0.000220   0.000908  -0.128048   0.118277   0.162523
   32  C  2  X    0.000069   0.000055  -0.000989  -0.000770  -0.000347
   33  C  2  Y   -0.003347  -0.001151  -0.057701  -0.094469   0.008963
   34  C  2  Z    0.030825  -0.016840  -0.090704  -0.219920   0.064259
   35  C  2 XX   -0.000846   0.000671  -0.011412  -0.001411  -0.000482
   36  C  2 YY    0.000530   0.000641  -0.003951   0.009838   0.005798
   37  C  2 ZZ    0.000316  -0.001312   0.015363  -0.008426  -0.005316
   38  C  2 XY    0.000016  -0.000006   0.000363   0.000223  -0.000141
   39  C  2 XZ   -0.000003   0.000006  -0.000151  -0.000285  -0.000395
   40  C  2 YZ    0.000877   0.000046  -0.006188  -0.001646  -0.009701
   41  C  2  S   -0.028930   0.019706  -0.018968  -0.117771   0.023184
   42  C  2  X   -0.000023  -0.000011   0.000224  -0.000196   0.000663
   43  C  2  Y   -0.001399  -0.001324  -0.000410  -0.026869   0.018125
   44  C  2  Z    0.004249  -0.005732   0.006503   0.004899  -0.013476
   45  C  2 XX    0.005980  -0.001056  -0.006719   0.006239   0.001285
   46  C  2 YY    0.004265  -0.001762  -0.017929  -0.060044  -0.008131
   47  C  2 ZZ   -0.010245   0.002818   0.024647   0.053805   0.006847
   48  C  2 XY   -0.000036  -0.000023   0.000563  -0.000943   0.000210
   49  C  2 XZ   -0.000044  -0.000038   0.000526  -0.000365   0.000866
   50  C  2 YZ   -0.004189  -0.001159   0.008738  -0.021179   0.013605
   51  H  3  S   -0.000653  -0.000109   0.124826   0.258275   0.194312
   52  H  3  S    0.021378   0.007227   0.065246   0.272068   0.107286
   53  H  3  X    0.000004   0.000005  -0.000043   0.000092   0.000195
   54  H  3  Y    0.001720  -0.000001  -0.012862  -0.016861  -0.005928
   55  H  3  Z    0.000717   0.000178  -0.011232  -0.009837  -0.005222
   56  H  3  S    0.001281   0.001911   0.003735   0.025941   0.010430
   57  H  3  X    0.000009   0.000009  -0.000263   0.000753  -0.000158
   58  H  3  Y   -0.007721  -0.002241  -0.007792  -0.042545  -0.011674
   59  H  3  Z   -0.002023  -0.000908  -0.017470  -0.029254  -0.010435
   60  H  4  S   -0.000339  -0.000857   0.116425  -0.229700  -0.141325
   61  H  4  S    0.017775   0.021903  -0.010800  -0.218982  -0.197659
   62  H  4  X   -0.000009  -0.000071   0.000603  -0.000817  -0.000181
   63  H  4  Y   -0.000208  -0.001547   0.014295  -0.016902   0.000660
   64  H  4  Z   -0.000619  -0.001027   0.012551  -0.005464  -0.009983
   65  H  4  S    0.001755   0.001992  -0.000021  -0.012920  -0.041500
   66  H  4  X    0.000211   0.000306  -0.000520  -0.001841  -0.002390
   67  H  4  Y    0.004818   0.006775  -0.009262  -0.020630  -0.049131
   68  H  4  Z    0.002480   0.003038   0.008731  -0.034428   0.011312
   69  H  5  S   -0.000195  -0.000912   0.126762  -0.203142   0.340644
   70  H  5  S    0.009363   0.018983   0.015701  -0.225263   0.435702
   71  H  5  X   -0.000008   0.000033  -0.000373   0.000480  -0.000252
   72  H  5  Y   -0.000074   0.001517  -0.014536   0.016658  -0.010203
   73  H  5  Z   -0.000424  -0.000940   0.011266  -0.004895   0.005047
   74  H  5  S    0.001714   0.001160   0.002172  -0.013850   0.045261
   75  H  5  X   -0.000084  -0.000163   0.000454   0.000620  -0.001258
   76  H  5  Y   -0.002369  -0.006006   0.000311   0.020146  -0.072884
   77  H  5  Z    0.001969   0.002945  -0.001872  -0.053844   0.040743

                      6          7          8          9         10
                   -0.4136    -0.2850    -0.2738    -0.0198    -0.0019
                     A          A          A          A          A   
    1  C  1  S   -0.000009  -0.000107   0.000552   0.000056  -0.002962
    2  C  1  S   -0.036894  -0.004687   0.050187   0.003214   0.084609
    3  C  1  S   -0.168977  -0.001432   0.024397   0.006947   0.345004
    4  C  1  X   -0.013251   0.390205   0.034225   0.403765  -0.000458
    5  C  1  Y   -0.254107  -0.001545  -0.136220  -0.014677   0.029902
    6  C  1  Z   -0.320137  -0.016890   0.112675  -0.001493  -0.096038
    7  C  1  X    0.000411   0.214738   0.022647   0.338636  -0.001712
    8  C  1  Y    0.061027  -0.011178   0.032313  -0.010997   0.041820
    9  C  1  Z   -0.091095  -0.000020  -0.021023  -0.000765  -0.283624
   10  C  1 XX   -0.001148  -0.000033   0.000482   0.000047   0.000937
   11  C  1 YY    0.010469   0.000140  -0.000763  -0.000028  -0.002783
   12  C  1 ZZ   -0.009322  -0.000107   0.000281  -0.000019   0.001846
   13  C  1 XY    0.000565   0.000645   0.000183   0.000058  -0.000079
   14  C  1 XZ    0.000074   0.021466   0.003238  -0.030074   0.000023
   15  C  1 YZ    0.013821  -0.003913   0.040232   0.000126   0.001444
   16  C  1  S   -0.037965  -0.016008   0.157317  -0.000196   1.293489
   17  C  1  X    0.001273   0.028573   0.003863   0.561532  -0.000237
   18  C  1  Y    0.051690  -0.002623   0.020119  -0.019443   0.037608
   19  C  1  Z   -0.014489  -0.004522   0.040032  -0.004575  -0.299291
   20  C  1 XX   -0.000084   0.000687  -0.005697  -0.000383  -0.039336
   21  C  1 YY   -0.043500  -0.003583   0.029387   0.000190   0.024625
   22  C  1 ZZ    0.043584   0.002897  -0.023690   0.000193   0.014711
   23  C  1 XY   -0.003260   0.004461   0.001017  -0.003249   0.002223
   24  C  1 XZ   -0.001382   0.003865  -0.001090  -0.041802   0.001563
   25  C  1 YZ   -0.052240   0.002527  -0.034576   0.003040   0.026992
   26  C  2  S   -0.000845  -0.000046  -0.000743   0.000009  -0.002507
   27  C  2  S    0.031638   0.016641  -0.150977  -0.003483   0.056163
   28  C  2  S   -0.055022   0.033178  -0.312366  -0.007810   0.365938
   29  C  2  X   -0.006549   0.439625   0.054237  -0.412056   0.000457
   30  C  2  Y    0.037138  -0.052592   0.470160   0.005012   0.044173
   31  C  2  Z    0.374665   0.032468  -0.255882  -0.002557   0.082516
   32  C  2  X   -0.002694   0.254487   0.033202  -0.348833  -0.000497
   33  C  2  Y   -0.065502  -0.025784   0.238408   0.002014   0.099614
   34  C  2  Z    0.046836   0.024395  -0.221422  -0.001272  -0.008063
   35  C  2 XX   -0.001562   0.000159  -0.004793   0.000121  -0.001702
   36  C  2 YY    0.011113   0.000293   0.000160  -0.000023  -0.004890
   37  C  2 ZZ   -0.009550  -0.000452   0.004633  -0.000099   0.006593
   38  C  2 XY    0.000123  -0.000474  -0.000433  -0.000078  -0.000075
   39  C  2 XZ    0.000493  -0.020336  -0.001478  -0.032081  -0.000045
   40  C  2 YZ    0.017624  -0.001103   0.020369   0.001463  -0.003650
   41  C  2  S   -0.015416   0.026801  -0.260566   0.000115   0.873469
   42  C  2  X   -0.000247   0.031217   0.004150  -0.513550   0.001204
   43  C  2  Y   -0.036008  -0.002478   0.023091   0.010220   0.190371
   44  C  2  Z   -0.014955  -0.001070   0.007243  -0.004512   0.144151
   45  C  2 XX   -0.003772  -0.001061   0.007016   0.000623  -0.039448
   46  C  2 YY   -0.036887   0.002426  -0.023185  -0.000788  -0.012499
   47  C  2 ZZ    0.040659  -0.001365   0.016170   0.000165   0.051947
   48  C  2 XY    0.000764  -0.001272  -0.000681   0.008333  -0.000089
   49  C  2 XZ    0.000012  -0.007164  -0.000933  -0.037671   0.000635
   50  C  2 YZ   -0.017022   0.000766  -0.011504   0.002667   0.032676
   51  H  3  S    0.233199  -0.017479   0.195762   0.006595   0.004925
   52  H  3  S    0.277574  -0.022190   0.249527   0.006197  -0.357512
   53  H  3  X   -0.000179   0.015597   0.001958  -0.020903   0.000004
   54  H  3  Y   -0.009330  -0.000761   0.006592   0.000320  -0.010733
   55  H  3  Z    0.001137   0.001861  -0.015894  -0.000097  -0.001456
   56  H  3  S    0.036890  -0.001919   0.027710   0.009510  -0.894778
   57  H  3  X   -0.000350   0.015361   0.002215  -0.053273  -0.000158
   58  H  3  Y   -0.038826   0.001397  -0.018218   0.002695   0.031576
   59  H  3  Z   -0.035727   0.003355  -0.029040   0.000595   0.032714
   60  H  4  S    0.324595  -0.011001   0.144880  -0.005263   0.007054
   61  H  4  S    0.391572  -0.014338   0.192754  -0.007742  -0.405138
   62  H  4  X    0.000336   0.014344   0.001426   0.021811   0.000374
   63  H  4  Y    0.009585  -0.000467  -0.001005  -0.000699   0.009637
   64  H  4  Z    0.003212  -0.000689   0.005116   0.000074   0.002099
   65  H  4  S    0.036281  -0.002992   0.039668  -0.012659  -0.639760
   66  H  4  X    0.002471   0.015534   0.002814   0.045440  -0.003154
   67  H  4  Y    0.054912  -0.003613   0.035363  -0.001102  -0.063637
   68  H  4  Z    0.052564  -0.000396   0.003527   0.001556  -0.017403
   69  H  5  S   -0.073208   0.018711  -0.209709   0.000406   0.003797
   70  H  5  S   -0.184550   0.030291  -0.337249   0.003017  -0.418107
   71  H  5  X   -0.000259   0.014284   0.001415   0.022639  -0.000311
   72  H  5  Y   -0.003124  -0.000489  -0.000082  -0.000710  -0.012251
   73  H  5  Z   -0.010885  -0.000196   0.000234  -0.000220   0.003413
   74  H  5  S   -0.043436   0.002793  -0.041761   0.000703  -1.138286
   75  H  5  X    0.002265   0.012638   0.002605   0.052768   0.001309
   76  H  5  Y    0.050991  -0.004171   0.043152  -0.002202   0.035944
   77  H  5  Z   -0.005976   0.002470  -0.023284  -0.000706  -0.024140

                     11         12         13         14         15
                    0.0149     0.0251     0.0627     0.0711     0.0791
                     A          A          A          A          A   
    1  C  1  S   -0.001291   0.002451   0.000531   0.007582   0.002855
    2  C  1  S    0.067375  -0.017260  -0.000891  -0.012618   0.043658
    3  C  1  S    0.187123  -0.130740  -0.030827  -0.388422   0.155852
    4  C  1  X   -0.004402  -0.004767   0.172440  -0.010030   0.001715
    5  C  1  Y   -0.067693  -0.118098  -0.004224   0.037824   0.012258
    6  C  1  Z   -0.036368   0.004988   0.000136   0.013678   0.054531
    7  C  1  X   -0.008773  -0.014094   0.200449  -0.006633  -0.000145
    8  C  1  Y   -0.171891  -0.371667  -0.006071   0.102496   0.010979
    9  C  1  Z   -0.273397   0.104476  -0.015761   0.037546  -0.043506
   10  C  1 XX    0.002785  -0.003170  -0.000312  -0.007362  -0.006889
   11  C  1 YY    0.004892  -0.001768   0.000084   0.001146  -0.010926
   12  C  1 ZZ   -0.007677   0.004938   0.000228   0.006216   0.017816
   13  C  1 XY   -0.000045   0.000015  -0.000799   0.000360  -0.000230
   14  C  1 XZ    0.000121  -0.000136   0.006066  -0.000533  -0.000029
   15  C  1 YZ   -0.004763  -0.003809  -0.000802  -0.010513   0.003176
   16  C  1  S    0.446197  -1.774503  -0.711993 -10.798560   1.441678
   17  C  1  X   -0.024256  -0.063397  -0.626080   0.054421  -0.025914
   18  C  1  Y   -0.208581  -1.937022   0.077647   0.433206  -0.489013
   19  C  1  Z   -0.531743  -0.383518  -0.303390  -4.808076  -1.592831
   20  C  1 XX   -0.010909   0.016859   0.006545   0.080183   0.023158
   21  C  1 YY    0.022121  -0.051718  -0.005337  -0.154770   0.015841
   22  C  1 ZZ   -0.011211   0.034859  -0.001208   0.074587  -0.039000
   23  C  1 XY    0.001128  -0.000721   0.023217  -0.010353   0.001227
   24  C  1 XZ    0.000450   0.002525   0.041244  -0.001514   0.004947
   25  C  1 YZ   -0.042717   0.098976  -0.005050   0.004470   0.111998
   26  C  2  S   -0.001273  -0.000755  -0.000815  -0.005507   0.005551
   27  C  2  S   -0.072986   0.048350   0.002105   0.040721   0.031312
   28  C  2  S   -0.231748   0.249344   0.053264   0.425701   0.052192
   29  C  2  X    0.001761  -0.001592   0.127720  -0.009856   0.002278
   30  C  2  Y   -0.085031  -0.045924  -0.011388  -0.142302   0.060743
   31  C  2  Z   -0.027475   0.023503   0.001409   0.005103  -0.075394
   32  C  2  X    0.002676   0.000211   0.145424  -0.013530  -0.000269
   33  C  2  Y   -0.160533   0.096741   0.013694   0.117344  -0.139730
   34  C  2  Z   -0.247400   0.149249  -0.009784   0.047660  -0.060972
   35  C  2 XX   -0.003381   0.001460   0.000060   0.001515  -0.009947
   36  C  2 YY   -0.001694   0.002180   0.000019  -0.000456  -0.013594
   37  C  2 ZZ    0.005075  -0.003640  -0.000079  -0.001059   0.023541
   38  C  2 XY   -0.000179  -0.000029   0.003967  -0.000142  -0.000039
   39  C  2 XZ    0.000391   0.000345  -0.013370   0.000936  -0.000150
   40  C  2 YZ    0.008203   0.007501   0.000622   0.001850  -0.006789
   41  C  2  S   -0.502683   2.313815   0.747078  11.098002  -0.240941
   42  C  2  X    0.008980   0.023707  -0.593039   0.057260  -0.007586
   43  C  2  Y   -0.552593   1.024342   0.003077   0.314539  -0.055607
   44  C  2  Z   -0.616264  -0.242525  -0.298968  -4.185655   1.854100
   45  C  2 XX    0.007837  -0.041074  -0.007033  -0.076317   0.063172
   46  C  2 YY   -0.063486   0.033824   0.005604   0.085591  -0.026360
   47  C  2 ZZ    0.055649   0.007250   0.001429  -0.009274  -0.036812
   48  C  2 XY   -0.000062   0.000825  -0.039522   0.003630  -0.002639
   49  C  2 XZ   -0.000122   0.000413  -0.015040   0.001988   0.001047
   50  C  2 YZ   -0.071902   0.084626   0.000729   0.060336   0.082635
   51  H  3  S    0.016201   0.014892  -0.000271  -0.023000  -0.018909
   52  H  3  S    0.669918  -0.552495  -0.058527  -0.855207   0.209268
   53  H  3  X    0.000112   0.000100  -0.005754   0.000419  -0.000038
   54  H  3  Y    0.010329   0.000117   0.000843   0.009850  -0.008502
   55  H  3  Z    0.008150  -0.000438   0.000203   0.005273   0.006992
   56  H  3  S    2.549896  -1.438439   0.215139   3.490349  -0.131760
   57  H  3  X    0.000330  -0.000664   0.039575  -0.003705   0.000393
   58  H  3  Y   -0.083524   0.134852   0.009952   0.138996  -0.085208
   59  H  3  Z   -0.020748   0.003541   0.014199   0.138900  -0.095962
   60  H  4  S   -0.009447   0.012795  -0.001456  -0.022631  -0.023475
   61  H  4  S   -0.449988  -0.450017   0.025476   0.593049  -0.340022
   62  H  4  X    0.000205   0.000199  -0.003523   0.000238   0.000122
   63  H  4  Y    0.007551   0.002759   0.000179  -0.000189   0.003573
   64  H  4  Z    0.007178   0.002804  -0.000524  -0.010528  -0.011450
   65  H  4  S   -2.048192  -3.108146   0.017136   0.448851  -1.129661
   66  H  4  X   -0.002427  -0.002287   0.070299  -0.001419   0.000652
   67  H  4  Y   -0.060611  -0.052053  -0.002661   0.031771  -0.010696
   68  H  4  Z   -0.008491  -0.053504   0.003683   0.146520   0.028880
   69  H  5  S    0.002720  -0.002582   0.001234   0.025664  -0.038626
   70  H  5  S   -0.158704   0.860984   0.009569   0.408828   0.094820
   71  H  5  X   -0.000299   0.000016  -0.004190   0.000193  -0.000260
   72  H  5  Y   -0.002423   0.004240   0.000178  -0.001303  -0.006275
   73  H  5  Z    0.003238  -0.007280  -0.000134  -0.002293  -0.014233
   74  H  5  S   -0.479929   3.804228  -0.277589  -4.355769   0.562543
   75  H  5  X    0.002186  -0.002223   0.031389  -0.002300  -0.001607
   76  H  5  Y    0.063658  -0.092381   0.000055  -0.002566  -0.090559
   77  H  5  Z    0.051610   0.068500   0.004206   0.101797   0.038365

                     16         17         18         19         20
                    0.1118     0.1126     0.1167     0.1281     0.1459
                     A          A          A          A          A   
    1  C  1  S    0.005735  -0.001459  -0.038793  -0.014862  -0.014902
    2  C  1  S   -0.057301   0.015912  -0.204945  -0.019468  -0.119759
    3  C  1  S   -0.977600   0.274395   0.322315   0.525931   0.527484
    4  C  1  X   -0.059750  -0.228461  -0.002753   0.009294   0.002238
    5  C  1  Y    0.112154  -0.023058  -0.084221   0.237319   0.037997
    6  C  1  Z    0.002869  -0.000892   0.121310   0.001913   0.129763
    7  C  1  X   -0.066196  -0.175021  -0.001800  -0.037119  -0.005248
    8  C  1  Y   -0.406386   0.123173   0.293208  -0.932604  -0.168938
    9  C  1  Z   -1.187628   0.364536  -1.554085  -0.380954   1.553684
   10  C  1 XX    0.000621  -0.000334   0.019905   0.016634  -0.039469
   11  C  1 YY   -0.000126   0.000047   0.003850  -0.008075   0.048732
   12  C  1 ZZ   -0.000495   0.000287  -0.023755  -0.008559  -0.009263
   13  C  1 XY   -0.000706  -0.001116  -0.000590  -0.000765   0.002735
   14  C  1 XZ    0.002193   0.006531  -0.000269   0.000387  -0.000643
   15  C  1 YZ    0.023314  -0.006494  -0.007330   0.009085  -0.016569
   16  C  1  S   -5.568617   1.378572   5.080433   5.288554   0.120008
   17  C  1  X    0.560080   2.163819   0.047922  -0.192558  -0.074932
   18  C  1  Y   -0.323273   0.035730   1.840361  -6.051140  -2.445973
   19  C  1  Z   -3.511003   0.957548  -1.942003   1.704509   0.555212
   20  C  1 XX    0.046405  -0.011720  -0.160654  -0.036973  -0.096533
   21  C  1 YY    0.173331  -0.056577   0.341763   0.198459  -0.662668
   22  C  1 ZZ   -0.219736   0.068297  -0.181109  -0.161486   0.759201
   23  C  1 XY    0.015773   0.030598   0.017743   0.014742  -0.018778
   24  C  1 XZ    0.016424   0.054530   0.002613   0.008614   0.016830
   25  C  1 YZ   -0.057963   0.015432  -0.013686   0.331949   0.319119
   26  C  2  S    0.008535  -0.002389  -0.035925  -0.026255   0.024630
   27  C  2  S    0.109042  -0.029884  -0.112376  -0.099121   0.012638
   28  C  2  S    0.454641  -0.137909   1.277394   0.778502  -2.184073
   29  C  2  X    0.065843   0.231882   0.000734   0.000097   0.000658
   30  C  2  Y    0.173254  -0.052086  -0.007700   0.001954  -0.094430
   31  C  2  Z    0.056903  -0.015000  -0.085159  -0.008477  -0.067954
   32  C  2  X    0.066433   0.218768  -0.002432   0.003682  -0.013740
   33  C  2  Y   -0.357660   0.111883   0.134664   0.407445  -0.510781
   34  C  2  Z   -1.317013   0.398620  -0.896090   0.125031   1.097583
   35  C  2 XX   -0.004715   0.001437   0.005324   0.013415  -0.011890
   36  C  2 YY    0.005957  -0.001610   0.002550  -0.007831   0.017850
   37  C  2 ZZ   -0.001241   0.000173  -0.007874  -0.005584  -0.005961
   38  C  2 XY    0.001402   0.005793  -0.000318  -0.000625   0.000977
   39  C  2 XZ    0.000485   0.004050   0.000114  -0.000649   0.000310
   40  C  2 YZ   -0.015629   0.003684   0.004109  -0.016902   0.001537
   41  C  2  S    3.979409  -0.944201   2.615794  -0.910717  -1.908391
   42  C  2  X   -0.605868  -2.149289  -0.019502   0.058262   0.016254
   43  C  2  Y   -2.692790   0.816525  -0.768304   3.512113   0.701378
   44  C  2  Z   -4.063555   1.106721  -0.147239   2.246549   1.081889
   45  C  2 XX    0.008228  -0.003446  -0.127712  -0.070757  -0.023485
   46  C  2 YY   -0.298030   0.089852  -0.129158   0.041477   0.197384
   47  C  2 ZZ    0.289802  -0.086406   0.256870   0.029281  -0.173899
   48  C  2 XY   -0.017081  -0.059562  -0.001420   0.000345   0.006612
   49  C  2 XZ    0.022662   0.082506   0.002264  -0.000129   0.004182
   50  C  2 YZ   -0.237737   0.068686   0.093480   0.141847   0.189517
   51  H  3  S   -0.020366   0.001722   0.011363  -0.087498   0.103595
   52  H  3  S    2.182232  -0.667267  -0.529585  -1.786466   0.601335
   53  H  3  X    0.000018   0.000648   0.000052  -0.000026  -0.000060
   54  H  3  Y   -0.019156   0.005588   0.011406   0.011098  -0.008214
   55  H  3  Z   -0.011423   0.003505  -0.001879   0.015176  -0.005300
   56  H  3  S    5.973231  -1.692172   0.176253  -3.859273  -0.780844
   57  H  3  X    0.027608   0.116426   0.000351  -0.006039   0.007590
   58  H  3  Y   -0.595797   0.175476   0.246264   0.282793   0.220293
   59  H  3  Z   -0.369817   0.108050   0.066274   0.160302  -0.140702
   60  H  4  S    0.027868  -0.004770  -0.002914  -0.057493   0.098073
   61  H  4  S   -1.024255   0.328063  -1.684687  -3.136051   0.727467
   62  H  4  X   -0.000310   0.000450  -0.000438  -0.000854  -0.000783
   63  H  4  Y   -0.010469   0.003296  -0.009528  -0.022758  -0.023934
   64  H  4  Z   -0.008705   0.002758  -0.001046  -0.011056   0.005822
   65  H  4  S   -3.769770   1.065285  -0.786114  -5.120712  -1.960731
   66  H  4  X   -0.033357  -0.083637  -0.020729  -0.030348  -0.004951
   67  H  4  Y   -0.316266   0.097141  -0.440969  -0.568519  -0.470433
   68  H  4  Z   -0.292994   0.086133  -0.209329  -0.573263   0.403157
   69  H  5  S   -0.018570   0.004685  -0.017475  -0.021941   0.225619
   70  H  5  S   -0.015195   0.035053  -2.723158   1.104940   2.831281
   71  H  5  X   -0.000601  -0.001424   0.000766  -0.000483   0.000384
   72  H  5  Y   -0.007839   0.002201   0.026104  -0.016386   0.011332
   73  H  5  Z    0.000713  -0.000057  -0.013595   0.014686  -0.000218
   74  H  5  S   -1.179228   0.345732  -4.240062   6.577214   2.817435
   75  H  5  X   -0.033615  -0.117166   0.015843  -0.011470   0.007680
   76  H  5  Y   -0.008596  -0.000312   0.668394  -0.421797   0.137794
   77  H  5  Z    0.103849  -0.022660  -0.417848   0.164278   0.435649

                     21         22         23         24         25
                    0.1684     0.1955     0.2193     0.2527     0.2855
                     A          A          A          A          A   
    1  C  1  S    0.049273   0.018565   0.000169  -0.005108  -0.009513
    2  C  1  S    0.158925   0.011526   0.001317  -0.029726  -0.136792
    3  C  1  S   -2.123057  -0.549495   0.008025   0.733950   0.377805
    4  C  1  X   -0.005882   0.008306   0.001207  -0.005273   0.003161
    5  C  1  Y   -0.065104   0.125433  -0.012088  -0.200010   0.009175
    6  C  1  Z   -0.063278  -0.018802   0.001390   0.075575  -0.014565
    7  C  1  X   -0.004517   0.017313  -0.071197  -0.004619   0.010972
    8  C  1  Y   -0.094590   0.602987  -0.010899  -0.223055   0.074959
    9  C  1  Z   -1.006924   1.212550   0.027045   0.761811   2.377996
   10  C  1 XX    0.014233  -0.024610   0.003495  -0.015351  -0.023512
   11  C  1 YY   -0.005727   0.025452  -0.003630   0.017977  -0.073636
   12  C  1 ZZ   -0.008506  -0.000841   0.000135  -0.002626   0.097148
   13  C  1 XY   -0.002470   0.004143   0.047063  -0.000962  -0.001328
   14  C  1 XZ   -0.000671   0.000702  -0.002652  -0.001322   0.000787
   15  C  1 YZ   -0.037523   0.037674  -0.005726  -0.031469  -0.013514
   16  C  1  S  -18.295072 -20.608050  -0.132741 -10.515406   2.256137
   17  C  1  X   -0.033829   0.070072   0.012754  -0.051654   0.001400
   18  C  1  Y   -0.148543   2.483112  -0.136096  -1.710092  -0.964613
   19  C  1  Z   -6.221554  -5.828503  -0.060754  -2.343888   4.008136
   20  C  1 XX    0.180062   0.118430  -0.017843   0.084300  -0.273498
   21  C  1 YY    0.140450  -0.554012   0.017076  -0.218463   0.137371
   22  C  1 ZZ   -0.320513   0.435582   0.000767   0.134162   0.136127
   23  C  1 XY    0.000498  -0.030224  -0.174763   0.004008   0.002593
   24  C  1 XZ    0.011471  -0.014618  -0.015464   0.029972  -0.009511
   25  C  1 YZ    0.442814  -0.205749   0.070148   0.854291   0.212813
   26  C  2  S   -0.045765  -0.017358  -0.000122  -0.004380   0.034026
   27  C  2  S   -0.198167  -0.048117  -0.002041  -0.001465   0.162235
   28  C  2  S    1.617839  -0.502206   0.019536  -0.377961  -0.608128
   29  C  2  X    0.004528  -0.006879  -0.040086   0.004890   0.002649
   30  C  2  Y   -0.038885   0.062093   0.008368   0.289111  -0.039160
   31  C  2  Z   -0.108783  -0.007598  -0.003780   0.022506  -0.251761
   32  C  2  X    0.000012  -0.006746  -0.233256  -0.006495   0.024263
   33  C  2  Y   -0.138618   0.801922  -0.003281   0.391414   0.426490
   34  C  2  Z   -1.200934   1.116803   0.014013   0.793284   1.536316
   35  C  2 XX   -0.016332   0.012194  -0.000215   0.014495   0.028951
   36  C  2 YY    0.011678   0.003214  -0.000513  -0.021616   0.021461
   37  C  2 ZZ    0.004654  -0.015408   0.000728   0.007121  -0.050413
   38  C  2 XY   -0.000644   0.001346   0.022186  -0.001086  -0.001377
   39  C  2 XZ    0.000605  -0.000436   0.009184   0.000196  -0.000875
   40  C  2 YZ    0.017597  -0.052596   0.003982   0.010101  -0.006916
   41  C  2  S   18.547459  20.751142   0.143007  11.161940  -3.960236
   42  C  2  X    0.010425  -0.020784  -0.168339   0.033942   0.009916
   43  C  2  Y   -1.668719  -1.007078   0.017743   1.574839   1.297385
   44  C  2  Z   -6.124204  -5.198292  -0.103642  -2.476646   1.569887
   45  C  2 XX   -0.185112  -0.160399   0.023010  -0.007251   0.187098
   46  C  2 YY   -0.163068   0.201557  -0.003974   0.203110   0.182524
   47  C  2 ZZ    0.348179  -0.041158  -0.019036  -0.195859  -0.369623
   48  C  2 XY   -0.008796   0.020085   0.253283  -0.011814   0.006864
   49  C  2 XZ    0.009354  -0.012829  -0.111329   0.020059   0.001772
   50  C  2 YZ    0.335482   0.270348   0.030513   0.611169   0.324363
   51  H  3  S    0.175853  -0.179644   0.011024  -0.092130  -0.022900
   52  H  3  S   -0.293734  -2.999692  -0.071079  -2.926452  -2.130174
   53  H  3  X    0.000362  -0.000599  -0.004043   0.000343  -0.000260
   54  H  3  Y    0.013060  -0.002187   0.000847  -0.003349   0.002655
   55  H  3  Z    0.005218  -0.007262   0.000343  -0.004472  -0.011843
   56  H  3  S    3.130392   1.700358   0.095435   0.208525  -2.675491
   57  H  3  X   -0.008647   0.018405   0.527711  -0.026989  -0.041511
   58  H  3  Y    0.600948   0.624986   0.005535  -0.231739   0.703049
   59  H  3  Z    0.160386  -0.200325   0.058412   0.209677   0.250631
   60  H  4  S   -0.159625   0.217399  -0.013775   0.013793   0.018741
   61  H  4  S   -0.589669   3.606596  -0.132191  -0.735089   1.163686
   62  H  4  X    0.000580   0.000302  -0.000588   0.000424   0.000421
   63  H  4  Y    0.020032   0.001559   0.001063  -0.000022   0.015551
   64  H  4  Z    0.021918  -0.001737   0.002048   0.024605  -0.008821
   65  H  4  S   -2.006862   0.917189  -0.126155  -0.456584   0.917375
   66  H  4  X    0.018569  -0.006453  -0.728837   0.034642  -0.012616
   67  H  4  Y    0.141543   0.190877   0.019713  -0.336271   0.589546
   68  H  4  Z    0.220538   0.131070   0.048743   0.428996  -0.848381
   69  H  5  S    0.027706  -0.055199   0.009525   0.155848   0.047480
   70  H  5  S    1.534145   1.047974   0.142583   2.754837   1.902627
   71  H  5  X   -0.000730   0.000487   0.003120   0.000330  -0.000274
   72  H  5  Y   -0.015879   0.002041   0.000271   0.016453  -0.012659
   73  H  5  Z   -0.007739   0.016365  -0.002455  -0.017698  -0.017469
   74  H  5  S   -1.443818  -3.067140   0.035920  -0.042745   2.695048
   75  H  5  X   -0.035898   0.037875   0.830118  -0.036976  -0.024882
   76  H  5  Y   -0.473469  -0.044248  -0.059899  -0.029058  -0.826849
   77  H  5  Z   -0.032864   0.602521  -0.048950  -0.512535  -0.874923

                     26         27         28         29         30
                    0.3082     0.3154     0.3553     0.3771     0.4044
                     A          A          A          A          A   
    1  C  1  S   -0.005544  -0.030447  -0.000764  -0.019877   0.040271
    2  C  1  S   -0.024200  -0.128319  -0.000818  -0.059175  -0.016935
    3  C  1  S    0.238031   1.450539   0.029946   1.760671  -2.114744
    4  C  1  X   -0.059054   0.008574  -0.246156   0.008729  -0.000530
    5  C  1  Y   -0.024605  -0.136527   0.011067   0.279147   0.055001
    6  C  1  Z   -0.047445  -0.249606  -0.000729  -0.075757  -0.000459
    7  C  1  X   -0.333452   0.058964  -0.970451   0.116639  -0.012191
    8  C  1  Y    0.072180   0.212183   0.047110   3.087534   0.318888
    9  C  1  Z    0.477533   2.302740  -0.031123   1.744455  -1.815525
   10  C  1 XX   -0.007124  -0.026505  -0.000198  -0.013591   0.018347
   11  C  1 YY   -0.000553   0.000953   0.000115   0.006824   0.008794
   12  C  1 ZZ    0.007677   0.025552   0.000084   0.006767  -0.027142
   13  C  1 XY   -0.034006   0.007070   0.011110  -0.000540  -0.000984
   14  C  1 XZ   -0.018234   0.002559  -0.029571  -0.001522  -0.000863
   15  C  1 YZ   -0.003140  -0.022780   0.000092  -0.050264  -0.010132
   16  C  1  S    1.310688   4.944207   0.103570   0.111138  -6.232373
   17  C  1  X   -0.123553  -0.075795  -1.111482   0.176598   0.023259
   18  C  1  Y   -0.705820  -3.534688   0.071248   4.845153   1.600779
   19  C  1  Z    0.450935   1.426403   0.017956  -0.054636  -1.788427
   20  C  1 XX   -0.004364  -0.085355  -0.006522  -0.082225   0.531923
   21  C  1 YY   -0.129538  -0.551442   0.002713  -0.334309   0.608219
   22  C  1 ZZ    0.133901   0.636798   0.003809   0.416535  -1.140142
   23  C  1 XY    0.503710  -0.111764  -0.226146  -0.011618   0.027682
   24  C  1 XZ    0.014586   0.017078   0.075681   0.019452   0.010001
   25  C  1 YZ    0.174417   1.028078   0.014789   0.294018   0.264836
   26  C  2  S    0.006419   0.027497  -0.000200   0.010194   0.032465
   27  C  2  S    0.025685   0.108098   0.000301   0.027984  -0.012287
   28  C  2  S   -0.341030  -1.527822   0.001909  -0.563134  -0.286472
   29  C  2  X   -0.109569   0.024522   0.044732   0.000299  -0.005303
   30  C  2  Y    0.007873   0.033250  -0.003088   0.034682  -0.202361
   31  C  2  Z   -0.004867   0.016855  -0.001554  -0.018918   0.035566
   32  C  2  X   -0.636364   0.105673   0.448042  -0.035599  -0.019356
   33  C  2  Y   -0.069234  -0.455151  -0.038245   0.200981  -2.269670
   34  C  2  Z    0.578055   2.987300  -0.020865   2.010408  -2.943128
   35  C  2 XX    0.006428   0.027972  -0.000085   0.007064   0.005677
   36  C  2 YY    0.009528   0.051018  -0.000092   0.011191  -0.021475
   37  C  2 ZZ   -0.015956  -0.078990   0.000176  -0.018255   0.015798
   38  C  2 XY    0.035006  -0.005899  -0.010293   0.000129   0.000434
   39  C  2 XZ    0.024098  -0.004032   0.015214   0.000071   0.000145
   40  C  2 YZ   -0.004656  -0.020936  -0.000889   0.006412  -0.007070
   41  C  2  S   -1.054296  -3.949138  -0.074008   0.615637   0.689720
   42  C  2  X   -0.445429   0.116124   0.536282  -0.044515  -0.023580
   43  C  2  Y    0.545711   2.593825  -0.031605  -0.627970  -2.756827
   44  C  2  Z    0.808911   3.807175   0.014212   0.594623  -1.884003
   45  C  2 XX    0.051233   0.359092  -0.011524   0.138539   0.899665
   46  C  2 YY    0.078985   0.388420   0.005275   0.780202  -0.963511
   47  C  2 ZZ   -0.130218  -0.747512   0.006249  -0.918741   0.063846
   48  C  2 XY   -0.357238   0.066953  -0.179057   0.008273  -0.023729
   49  C  2 XZ   -0.149679   0.041686   0.325993   0.022779   0.006709
   50  C  2 YZ    0.204400   1.135653   0.004446   0.714844   0.126225
   51  H  3  S   -0.008360  -0.017976   0.000087   0.055877  -0.034629
   52  H  3  S   -0.572663  -2.980866   0.036387  -3.290915   6.794513
   53  H  3  X    0.004883  -0.000615   0.000140  -0.000019   0.000015
   54  H  3  Y   -0.000401  -0.000482  -0.000159   0.000388   0.001978
   55  H  3  Z   -0.006678  -0.034025  -0.000161  -0.009445   0.008895
   56  H  3  S   -0.646487  -2.830726  -0.006186  -0.559263   3.006061
   57  H  3  X    1.493232  -0.276487  -0.388054  -0.005231   0.025162
   58  H  3  Y    0.185824   1.039100  -0.003370   0.479266  -1.444130
   59  H  3  Z   -0.198237  -1.046990  -0.003641   0.743113  -0.873763
   60  H  4  S   -0.015268  -0.049005   0.000262   0.026351   0.038685
   61  H  4  S   -0.050025  -0.521929  -0.055112   4.331405   0.180731
   62  H  4  X    0.004913  -0.000655  -0.011913   0.000250  -0.000386
   63  H  4  Y    0.000215  -0.000989   0.000344   0.005006   0.003929
   64  H  4  Z    0.000315   0.003827   0.000272   0.002723   0.000699
   65  H  4  S   -0.244544  -1.288621   0.016605   4.143735   0.221141
   66  H  4  X    1.272157  -0.239413   0.718106   0.035247   0.041882
   67  H  4  Y    0.037503   0.153566  -0.065770  -0.095064  -0.294619
   68  H  4  Z    0.120764   0.768110   0.001530   1.552545  -0.425772
   69  H  5  S    0.004564   0.044651   0.000198   0.009875   0.022376
   70  H  5  S    0.559597   3.286107  -0.031550  -2.693999   0.478933
   71  H  5  X   -0.006315   0.001395  -0.010016   0.000334   0.000045
   72  H  5  Y    0.000934   0.008333   0.000774   0.014364   0.000713
   73  H  5  Z   -0.005984  -0.032185  -0.000133  -0.018099   0.001664
   74  H  5  S    0.769335   3.581443  -0.025429  -3.866868  -0.975034
   75  H  5  X   -0.455103   0.079305   1.618671  -0.046140  -0.022184
   76  H  5  Y   -0.088218  -0.545764  -0.049168  -0.391143  -0.210376
   77  H  5  Z    0.054042   0.403037  -0.015560  -0.900769  -0.205352

                     31         32         33         34         35
                    0.4384     0.4439     0.4485     0.4763     0.4826
                     A          A          A          A          A   
    1  C  1  S    0.064849   0.014386  -0.001176   0.022869   0.009978
    2  C  1  S    0.031708  -0.047142  -0.000797  -0.027028  -0.015161
    3  C  1  S   -4.216030   0.701907   0.237215  -2.249420  -0.771216
    4  C  1  X    0.009625  -0.031162   0.247724   0.010690  -0.047536
    5  C  1  Y    0.027625  -0.064308  -0.009906  -0.130214   0.037582
    6  C  1  Z    0.085114   0.003241   0.009892  -0.016261  -0.007982
    7  C  1  X    0.066514  -0.117964   1.821548  -0.018260  -0.340425
    8  C  1  Y   -0.601795   1.190157   0.355436  -3.695963  -0.574266
    9  C  1  Z    5.929039   3.742479   0.269208  -0.922537  -0.803959
   10  C  1 XX    0.017932  -0.008147   0.000087  -0.012778   0.000663
   11  C  1 YY   -0.026591  -0.005350  -0.001055   0.013121   0.003277
   12  C  1 ZZ    0.008659   0.013498   0.000968  -0.000343  -0.003940
   13  C  1 XY   -0.001280  -0.000737   0.001908   0.000476  -0.004524
   14  C  1 XZ    0.000291   0.000264  -0.014119  -0.002929  -0.030392
   15  C  1 YZ    0.019544   0.011604  -0.002133  -0.010230   0.011102
   16  C  1  S   -6.879676  -3.995003  -0.822890   3.678352   0.129700
   17  C  1  X    0.021967  -0.026002   1.148380   0.038052   0.143562
   18  C  1  Y   -0.590353   1.619680   0.263855  -0.823507  -0.335231
   19  C  1  Z    1.096809   0.264866  -0.114074   0.787401   0.013117
   20  C  1 XX    0.577966   0.277931   0.026155  -0.457055   0.022513
   21  C  1 YY   -1.937648  -0.747715  -0.029127   0.521980   0.391345
   22  C  1 ZZ    1.359683   0.469784   0.002972  -0.064926  -0.413858
   23  C  1 XY   -0.107609  -0.035442  -0.261437   0.028225  -0.301018
   24  C  1 XZ   -0.003693   0.003105  -0.121509   0.079114   1.425188
   25  C  1 YZ    0.633005  -2.630041  -0.241062  -0.095559   0.333756
   26  C  2  S    0.061916   0.028569  -0.001820   0.052588  -0.014363
   27  C  2  S   -0.000985  -0.026653  -0.007175   0.015215   0.004002
   28  C  2  S   -6.410983  -2.500789   0.075333  -4.145570   1.823395
   29  C  2  X    0.003084   0.011536  -0.255890  -0.027765  -0.249897
   30  C  2  Y    0.125938   0.065622   0.009749  -0.135109   0.012119
   31  C  2  Z    0.031957  -0.080861   0.006141  -0.179288   0.001862
   32  C  2  X   -0.007948   0.040382  -0.688698  -0.090022  -1.521215
   33  C  2  Y   -0.739875   3.151573   0.325078  -1.478114   0.076473
   34  C  2  Z    3.097982   2.709185   0.313484  -2.467590  -0.732209
   35  C  2 XX    0.033166  -0.000979  -0.001007  -0.010786  -0.002251
   36  C  2 YY   -0.013024   0.026891   0.002667   0.016234  -0.003494
   37  C  2 ZZ   -0.020142  -0.025912  -0.001660  -0.005448   0.005745
   38  C  2 XY   -0.000769  -0.000398   0.004523   0.000716   0.004165
   39  C  2 XZ   -0.000512   0.002704  -0.015014  -0.001654   0.001625
   40  C  2 YZ   -0.021191   0.054325   0.006197   0.012440  -0.008096
   41  C  2  S   -0.660379   1.283245   0.738408  -4.733911   0.093414
   42  C  2  X   -0.001616   0.052549  -1.183256  -0.079685  -0.523203
   43  C  2  Y    0.506582   0.033336  -0.014183  -0.230144   0.144289
   44  C  2  Z   -0.232780  -0.144103  -0.106710   0.152123   0.023654
   45  C  2 XX    0.037230   0.208982   0.002286  -0.146623  -0.010241
   46  C  2 YY    0.493894   1.356882   0.076888   0.100409   0.027643
   47  C  2 ZZ   -0.531124  -1.565864  -0.079174   0.046214  -0.017402
   48  C  2 XY    0.014934   0.002764  -0.659127  -0.051877  -0.979045
   49  C  2 XZ    0.029001  -0.135873   1.055363   0.075840  -0.305112
   50  C  2 YZ   -0.346580  -0.844104  -0.004721  -0.396701  -0.121477
   51  H  3  S   -0.093924   0.184959   0.020929   0.123548  -0.045236
   52  H  3  S    1.151955  -3.037771  -0.610726   6.487740  -0.410146
   53  H  3  X   -0.000531   0.000334  -0.017248  -0.001238  -0.021943
   54  H  3  Y   -0.018947   0.013107   0.000879   0.029410  -0.000955
   55  H  3  Z   -0.020868   0.024918   0.003252   0.002613  -0.005607
   56  H  3  S   -0.048909  -0.192194  -0.029931   0.892014  -0.138280
   57  H  3  X   -0.014860   0.008229   0.750946   0.045690   1.398245
   58  H  3  Y   -0.383333  -0.237826   0.147394  -3.251634   0.175312
   59  H  3  Z   -0.117158   1.423948   0.083614  -0.920237   0.427153
   60  H  4  S   -0.043400  -0.082337  -0.015820   0.024804   0.070624
   61  H  4  S    6.149781   9.336534   1.144377  -5.959060  -1.491117
   62  H  4  X    0.000420  -0.001510   0.016800   0.001520   0.004351
   63  H  4  Y    0.007515  -0.017951  -0.002285   0.003712  -0.002606
   64  H  4  Z   -0.005465  -0.011685   0.001080  -0.002038  -0.008700
   65  H  4  S    1.419636   1.897856   0.234850  -0.905000  -0.137751
   66  H  4  X    0.017029   0.258322  -1.271778  -0.123954   0.147650
   67  H  4  Y    1.096682   2.987895   0.361631  -1.620657  -0.209870
   68  H  4  Z    1.848195   0.124610   0.018200  -1.232763  -0.124627
   69  H  5  S   -0.177578   0.090403   0.013204   0.107793  -0.008208
   70  H  5  S    9.109978  -2.498883  -0.698345   4.720160   0.750440
   71  H  5  X    0.000243  -0.002433   0.007938   0.000732  -0.013445
   72  H  5  Y   -0.006789  -0.005566  -0.000716   0.022366  -0.000250
   73  H  5  Z    0.006972  -0.003901  -0.001764   0.003860   0.003596
   74  H  5  S    1.536234  -0.493943  -0.175202   0.824651   0.213998
   75  H  5  X   -0.064277   0.151620  -0.424164  -0.048863   1.130882
   76  H  5  Y   -2.127489   1.458144   0.304490  -2.563921  -0.365528
   77  H  5  Z    1.117116   0.985275  -0.034284   1.416313  -0.091192

                     36         37         38         39         40
                    0.4871     0.4936     0.5047     0.5565     0.5630
                     A          A          A          A          A   
    1  C  1  S    0.009743   0.103953  -0.024804   0.078597  -0.005587
    2  C  1  S   -0.105724  -0.003885  -0.026297   0.021552   0.004586
    3  C  1  S   -1.460930  -8.273103   4.290370  -8.375483   0.490475
    4  C  1  X    0.024989   0.004106  -0.005036  -0.004521   0.071343
    5  C  1  Y    0.174762   0.005154  -0.109885  -0.063365   0.003555
    6  C  1  Z   -0.247302   0.324353  -0.082063  -0.147468   0.012669
    7  C  1  X    0.172813   0.016410  -0.169740   0.027846   1.359999
    8  C  1  Y   -0.380081  -0.839521  -7.064179  -0.232053   0.181897
    9  C  1  Z   -2.694548  -2.663729   1.354008  -1.637518   0.583563
   10  C  1 XX   -0.010556   0.008798  -0.005772   0.026621   0.000283
   11  C  1 YY    0.012012   0.031797  -0.008892  -0.008065  -0.001293
   12  C  1 ZZ   -0.001455  -0.040595   0.014664  -0.018556   0.001010
   13  C  1 XY    0.002661   0.001684   0.000149  -0.001568   0.002753
   14  C  1 XZ    0.005371   0.003291   0.001072  -0.004188  -0.055667
   15  C  1 YZ    0.055892  -0.003307   0.012963  -0.027448   0.001255
   16  C  1  S    4.407636  -4.976075  -4.835768 -14.705060   1.072873
   17  C  1  X    0.003035  -0.035163  -0.055490   0.016923   0.221188
   18  C  1  Y   -0.145330  -0.557006  -1.884390   0.915774  -0.093892
   19  C  1  Z    0.322694  -0.204672  -0.974065  -4.868712   0.359925
   20  C  1 XX   -0.288887   0.296478   0.580119  -0.037180   0.032202
   21  C  1 YY    0.409549   2.644673  -0.649410  -1.823140  -0.139617
   22  C  1 ZZ   -0.120662  -2.941152   0.069291   1.860320   0.107415
   23  C  1 XY    0.085511   0.143722   0.060794  -0.043896   1.604511
   24  C  1 XZ   -0.177475  -0.164104  -0.058832   0.130699   2.182166
   25  C  1 YZ    0.797099   0.412167   0.261668   0.162701  -0.068191
   26  C  2  S   -0.005149  -0.087956  -0.032266  -0.051354   0.006065
   27  C  2  S    0.092657  -0.080856  -0.013086   0.135493  -0.004862
   28  C  2  S    2.055488  10.049998   2.884325   2.958634  -0.634453
   29  C  2  X    0.023409   0.021150  -0.001598  -0.019912  -0.317550
   30  C  2  Y    0.070910  -0.020625  -0.017422   0.004658   0.005693
   31  C  2  Z   -0.197704   0.177496   0.002731  -0.086476   0.015136
   32  C  2  X    0.168757   0.174826   0.108220  -0.088003  -1.434089
   33  C  2  Y   -0.577386   1.045371   3.291243   0.656178   0.060119
   34  C  2  Z   -2.925621  -3.074152   2.512958  -1.492985   0.541623
   35  C  2 XX    0.013218  -0.049697   0.002169   0.011232   0.001980
   36  C  2 YY   -0.014650   0.004143   0.007234  -0.027249  -0.000683
   37  C  2 ZZ    0.001432   0.045554  -0.009403   0.016017  -0.001297
   38  C  2 XY    0.000715   0.001270  -0.000050   0.000463   0.027283
   39  C  2 XZ   -0.002178  -0.000462  -0.000529  -0.000793  -0.033122
   40  C  2 YZ   -0.031621   0.006598   0.010478  -0.013588   0.000281
   41  C  2  S   -4.240924   5.255478   5.832525  15.683882  -1.109404
   42  C  2  X    0.044609   0.054062   0.017706  -0.028031  -0.383364
   43  C  2  Y   -0.228380   0.443365   0.975924  -1.185423   0.124224
   44  C  2  Z    0.358792  -0.708422  -0.703881  -3.821076   0.340526
   45  C  2 XX    0.248423  -0.328768  -0.028138  -0.377685   0.036332
   46  C  2 YY    0.323269  -0.548366   1.462499  -0.919124   0.057958
   47  C  2 ZZ   -0.571691   0.877133  -1.434361   1.296809  -0.094290
   48  C  2 XY    0.115979   0.083971   0.072788  -0.023010   0.055594
   49  C  2 XZ    0.123803   0.034543   0.051471   0.066870   1.891532
   50  C  2 YZ   -0.953757   0.246215  -0.359910   1.018509  -0.018004
   51  H  3  S   -0.181461  -0.029721   0.048221  -0.152832   0.003335
   52  H  3  S    2.400302  -3.817189  -7.387629  -3.030128  -0.131348
   53  H  3  X    0.002772   0.003128   0.001253  -0.001600  -0.001668
[...]
 II,JST,KST,LST =  1  1  1  1 NREC =         1 INTLOC =    1
 II,JST,KST,LST =  2  1  1  1 NREC =         1 INTLOC =    1
 II,JST,KST,LST =  3  1  1  1 NREC =         1 INTLOC =    1
 II,JST,KST,LST =  4  1  1  1 NREC =         1 INTLOC =    1
 II,JST,KST,LST =  5  1  1  1 NREC =         1 INTLOC =    1
 II,JST,KST,LST =  6  1  1  1 NREC =         1 INTLOC =    1
 II,JST,KST,LST =  7  1  1  1 NREC =         1 INTLOC =    4
 II,JST,KST,LST =  8  1  1  1 NREC =         1 INTLOC =   49
 II,JST,KST,LST =  9  1  1  1 NREC =         1 INTLOC =   49
 II,JST,KST,LST = 10  1  1  1 NREC =         1 INTLOC = 1168
 II,JST,KST,LST = 11  1  1  1 NREC =         1 INTLOC = 1168
 II,JST,KST,LST = 12  1  1  1 NREC =         1 INTLOC = 1168
 II,JST,KST,LST = 13  1  1  1 NREC =         1 INTLOC = 1168
 II,JST,KST,LST = 14  1  1  1 NREC =         1 INTLOC = 1503
 II,JST,KST,LST = 15  1  1  1 NREC =         1 INTLOC = 5141
 II,JST,KST,LST = 16  1  1  1 NREC =         1 INTLOC = 5141
 II,JST,KST,LST = 17  1  1  1 NREC =         1 INTLOC = 5553
 II,JST,KST,LST = 18  1  1  1 NREC =         1 INTLOC = 9095
 II,JST,KST,LST = 19  1  1  1 NREC =         2 INTLOC = 1500
 II,JST,KST,LST = 20  1  1  1 NREC =         2 INTLOC = 1500
 II,JST,KST,LST = 21  1  1  1 NREC =         2 INTLOC = 1500
 II,JST,KST,LST = 22  1  1  1 NREC =         2 INTLOC = 1500
 II,JST,KST,LST = 23  1  1  1 NREC =         3 INTLOC = 6814
 II,JST,KST,LST = 24  1  1  1 NREC =         3 INTLOC = 6814
 II,JST,KST,LST = 25  1  1  1 NREC =         3 INTLOC =11872
 II,JST,KST,LST = 26  1  1  1 NREC =         4 INTLOC = 2242
 II,JST,KST,LST = 27  1  1  1 NREC =         5 INTLOC = 3879
 II,JST,KST,LST = 28  1  1  1 NREC =         5 INTLOC = 9249
 II,JST,KST,LST = 29  1  1  1 NREC =         8 INTLOC = 3377
 II,JST,KST,LST = 30  1  1  1 NREC =         8 INTLOC = 9682
 II,JST,KST,LST = 31  1  1  1 NREC =         9 INTLOC =   51
 II,JST,KST,LST = 32  1  1  1 NREC =         9 INTLOC =11676
 II,JST,KST,LST = 33  1  1  1 NREC =        11 INTLOC =10966
 II,JST,KST,LST = 34  1  1  1 NREC =        15 INTLOC = 7410
 II,JST,KST,LST = 35  1  1  1 NREC =        15 INTLOC = 7410
 II,JST,KST,LST = 36  1  1  1 NREC =        17 INTLOC =  953
 II,JST,KST,LST = 37  1  1  1 NREC =        17 INTLOC = 9129
 II,JST,KST,LST = 38  1  1  1 NREC =        22 INTLOC =12665
 II,JST,KST,LST = 39  1  1  1 NREC =        24 INTLOC = 5501
 II,JST,KST,LST = 40  1  1  1 NREC =        28 INTLOC = 7505
 II,JST,KST,LST = 41  1  1  1 NREC =        31 INTLOC =12243
 II,JST,KST,LST = 42  1  1  1 NREC =        36 INTLOC = 6898
 II,JST,KST,LST = 43  1  1  1 NREC =        62 INTLOC = 2901
 II,JST,KST,LST = 44  1  1  1 NREC =        62 INTLOC = 2901
 II,JST,KST,LST = 45  1  1  1 NREC =        62 INTLOC = 2901
 II,JST,KST,LST = 46  1  1  1 NREC =        65 INTLOC =  727
 II,JST,KST,LST = 47  1  1  1 NREC =        73 INTLOC = 6527
 II,JST,KST,LST = 48  1  1  1 NREC =        89 INTLOC = 6092
 II,JST,KST,LST = 49  1  1  1 NREC =       114 INTLOC = 6969
 II,JST,KST,LST = 50  1  1  1 NREC =       114 INTLOC = 6969
 II,JST,KST,LST = 51  1  1  1 NREC =       128 INTLOC =12233
 II,JST,KST,LST = 52  1  1  1 NREC =       140 INTLOC = 8478
 II,JST,KST,LST = 53  1  1  1 NREC =       146 INTLOC =11619
 II,JST,KST,LST = 54  1  1  1 NREC =       150 INTLOC = 3374
 II,JST,KST,LST = 55  1  1  1 NREC =       157 INTLOC =14812
 II,JST,KST,LST = 56  1  1  1 NREC =       168 INTLOC = 7010
 II,JST,KST,LST = 57  1  1  1 NREC =       174 INTLOC = 7010
 II,JST,KST,LST = 58  1  1  1 NREC =       180 INTLOC = 3655
 II,JST,KST,LST = 59  1  1  1 NREC =       191 INTLOC =14366
 II,JST,KST,LST = 60  1  1  1 NREC =       201 INTLOC = 8248
 II,JST,KST,LST = 61  1  1  1 NREC =       205 INTLOC = 6478
 II,JST,KST,LST = 62  1  1  1 NREC =       232 INTLOC =14069
 II,JST,KST,LST = 63  1  1  1 NREC =       239 INTLOC = 5842
 II,JST,KST,LST = 64  1  1  1 NREC =       248 INTLOC = 9887
 II,JST,KST,LST = 65  1  1  1 NREC =       276 INTLOC =14808
 II,JST,KST,LST = 66  1  1  1 NREC =       278 INTLOC =14927
 SCHWARZ INEQUALITY TEST SKIPPED       32769 INTEGRAL BLOCKS.
 TOTAL NUMBER OF NONZERO TWO-ELECTRON INTEGRALS =            67026932
       4477 INTEGRAL RECORDS WERE STORED ON DISK FILE  8.
  ...... END OF TWO-ELECTRON INTEGRALS .....
 CPU     0: STEP CPU TIME=     0.27 TOTAL CPU TIME=         23.4 (      0.4 MIN)
 TOTAL WALL CLOCK TIME=         23.8 SECONDS, CPU UTILIZATION IS    98.33%

          ---------------------------------------------
          MONOMER ELECTROSTATIC INTERACTION (OWN BASIS)
          ---------------------------------------------

          -------------
          GUESS OPTIONS
          -------------
          GUESS =MOSAVED           NORB  =       0          NORDER=       0
          MIX   =       F          PRTMO =       F          PUNMO =       F
          TOLZ  = 1.0E-08          TOLE  = 1.0E-05
          SYMDEN=       F          PURIFY=       F

 INITIAL GUESS ORBITALS GENERATED BY MOSAVED  ROUTINE.

 STATISTICS FOR GENERATION OF SYMMETRY ORBITAL -Q- MATRIX
 NUMBER OF CARTESIAN ATOMIC ORBITALS=        154
 NUMBER OF SPHERICAL CONTAMINANTS DROPPED=     8
 NUMBER OF LINEARLY DEPENDENT MOS DROPPED=     0
 TOTAL NUMBER OF MOS IN VARIATION SPACE=     146
 ...... END OF INITIAL ORBITAL SELECTION ......
 CPU     0: STEP CPU TIME=     0.01 TOTAL CPU TIME=         23.4 (      0.4 MIN)
 TOTAL WALL CLOCK TIME=         23.8 SECONDS, CPU UTILIZATION IS    98.33%

          ---------------------------
                  UHF SCF CALCULATION
          ---------------------------

 FINAL UHF ENERGY IS     -155.3030185394 AFTER   1 ITERATIONS
 ...... END OF UHF CALCULATION ......
 CPU     0: STEP CPU TIME=     0.08 TOTAL CPU TIME=         23.5 (      0.4 MIN)
 TOTAL WALL CLOCK TIME=         23.9 SECONDS, CPU UTILIZATION IS    98.30%

          -------------
          GUESS OPTIONS
          -------------
          GUESS =MOSAVED           NORB  =       0          NORDER=       0
          MIX   =       F          PRTMO =       F          PUNMO =       F
          TOLZ  = 1.0E-08          TOLE  = 1.0E-05
          SYMDEN=       F          PURIFY=       F

 INITIAL GUESS ORBITALS GENERATED BY MOSAVED  ROUTINE.

 STATISTICS FOR GENERATION OF SYMMETRY ORBITAL -Q- MATRIX
 NUMBER OF CARTESIAN ATOMIC ORBITALS=        154
 NUMBER OF SPHERICAL CONTAMINANTS DROPPED=     8
 NUMBER OF LINEARLY DEPENDENT MOS DROPPED=     0
 TOTAL NUMBER OF MOS IN VARIATION SPACE=     146
 ...... END OF INITIAL ORBITAL SELECTION ......
 CPU     0: STEP CPU TIME=     0.01 TOTAL CPU TIME=         23.5 (      0.4 MIN)
 TOTAL WALL CLOCK TIME=         23.9 SECONDS, CPU UTILIZATION IS    98.30%

          ---------------------------
                  UHF SCF CALCULATION
          ---------------------------

 DIRECT SCF CALCULATION, SCHWRZ=T   FDIFF=T
 SCHWARZ INEQUALITY OVERHEAD:     11935 INTEGRALS, T=        0.00

 FINAL UHF ENERGY IS     -332.2022272487 AFTER   1 ITERATIONS
 ...... END OF UHF CALCULATION ......
 CPU     0: STEP CPU TIME=     0.27 TOTAL CPU TIME=         23.8 (      0.4 MIN)
 TOTAL WALL CLOCK TIME=         24.2 SECONDS, CPU UTILIZATION IS    98.26%

 XEDA STEP ENERGY SUMMATION
 ETOT =       -155.30301854     ENUC =        103.47920740
 EEXCH=        -22.94730847

          --------------------------------------------------
          MONOMER EXCHANGE-REPULSION INTERACTION (OWN BASIS)
          --------------------------------------------------

          -------------
          GUESS OPTIONS
          -------------
          GUESS =MOSAVED           NORB  =       0          NORDER=       0
          MIX   =       F          PRTMO =       F          PUNMO =       F
          TOLZ  = 1.0E-08          TOLE  = 1.0E-05
          SYMDEN=       F          PURIFY=       F

 INITIAL GUESS ORBITALS GENERATED BY MOSAVED  ROUTINE.

 STATISTICS FOR GENERATION OF SYMMETRY ORBITAL -Q- MATRIX
 NUMBER OF CARTESIAN ATOMIC ORBITALS=        154
 NUMBER OF SPHERICAL CONTAMINANTS DROPPED=     8
 NUMBER OF LINEARLY DEPENDENT MOS DROPPED=     0
 TOTAL NUMBER OF MOS IN VARIATION SPACE=     146
 ...... END OF INITIAL ORBITAL SELECTION ......
 CPU     0: STEP CPU TIME=     0.01 TOTAL CPU TIME=         23.8 (      0.4 MIN)
 TOTAL WALL CLOCK TIME=         24.2 SECONDS, CPU UTILIZATION IS    98.26%

          ---------------------------
                  UHF SCF CALCULATION
          ---------------------------

 FINAL UHF ENERGY IS     -154.6247264518 AFTER   1 ITERATIONS
 ...... END OF UHF CALCULATION ......
 CPU     0: STEP CPU TIME=     0.08 TOTAL CPU TIME=         23.9 (      0.4 MIN)
 TOTAL WALL CLOCK TIME=         24.3 SECONDS, CPU UTILIZATION IS    98.23%

 XEDA STEP ENERGY SUMMATION
 ETOT =       -154.62472645     ENUC =        103.47920740

          ---------------------------------------------
          MONOMER ELECTROSTATIC INTERACTION (ALL BASIS)
          ---------------------------------------------

          -------------
          GUESS OPTIONS
          -------------
          GUESS =MOSAVED           NORB  =       0          NORDER=       0
          MIX   =       F          PRTMO =       F          PUNMO =       F
          TOLZ  = 1.0E-08          TOLE  = 1.0E-05
          SYMDEN=       F          PURIFY=       F

 INITIAL GUESS ORBITALS GENERATED BY MOSAVED  ROUTINE.

 STATISTICS FOR GENERATION OF SYMMETRY ORBITAL -Q- MATRIX
 NUMBER OF CARTESIAN ATOMIC ORBITALS=        154
 NUMBER OF SPHERICAL CONTAMINANTS DROPPED=     8
 NUMBER OF LINEARLY DEPENDENT MOS DROPPED=     0
 TOTAL NUMBER OF MOS IN VARIATION SPACE=     146
 ...... END OF INITIAL ORBITAL SELECTION ......
 CPU     0: STEP CPU TIME=     0.01 TOTAL CPU TIME=         23.9 (      0.4 MIN)
 TOTAL WALL CLOCK TIME=         24.3 SECONDS, CPU UTILIZATION IS    98.23%

          ---------------------------
                  UHF SCF CALCULATION
          ---------------------------

 FINAL UHF ENERGY IS     -155.3092309343 AFTER   1 ITERATIONS
 ...... END OF UHF CALCULATION ......
 CPU     0: STEP CPU TIME=     0.08 TOTAL CPU TIME=         24.0 (      0.4 MIN)
 TOTAL WALL CLOCK TIME=         24.4 SECONDS, CPU UTILIZATION IS    98.21%

          -------------
          GUESS OPTIONS
          -------------
          GUESS =MOSAVED           NORB  =       0          NORDER=       0
          MIX   =       F          PRTMO =       F          PUNMO =       F
          TOLZ  = 1.0E-08          TOLE  = 1.0E-05
          SYMDEN=       F          PURIFY=       F

 INITIAL GUESS ORBITALS GENERATED BY MOSAVED  ROUTINE.

 STATISTICS FOR GENERATION OF SYMMETRY ORBITAL -Q- MATRIX
 NUMBER OF CARTESIAN ATOMIC ORBITALS=        154
 NUMBER OF SPHERICAL CONTAMINANTS DROPPED=     8
 NUMBER OF LINEARLY DEPENDENT MOS DROPPED=     0
 TOTAL NUMBER OF MOS IN VARIATION SPACE=     146
 ...... END OF INITIAL ORBITAL SELECTION ......
 CPU     0: STEP CPU TIME=     0.00 TOTAL CPU TIME=         24.0 (      0.4 MIN)
 TOTAL WALL CLOCK TIME=         24.4 SECONDS, CPU UTILIZATION IS    98.21%

          ---------------------------
                  UHF SCF CALCULATION
          ---------------------------

 DIRECT SCF CALCULATION, SCHWRZ=T   FDIFF=T
 SCHWARZ INEQUALITY OVERHEAD:     11935 INTEGRALS, T=        0.00

 FINAL UHF ENERGY IS     -332.2249556030 AFTER   1 ITERATIONS
 ...... END OF UHF CALCULATION ......
 CPU     0: STEP CPU TIME=     0.28 TOTAL CPU TIME=         24.2 (      0.4 MIN)
 TOTAL WALL CLOCK TIME=         24.7 SECONDS, CPU UTILIZATION IS    98.18%

 XEDA STEP ENERGY SUMMATION
 ETOT =       -155.30923093     ENUC =        103.47920740
 EEXCH=        -22.94783714

          --------------------------------------------------
          MONOMER EXCHANGE-REPULSION INTERACTION (ALL BASIS)
          --------------------------------------------------

          -------------
          GUESS OPTIONS
          -------------
          GUESS =MOSAVED           NORB  =       0          NORDER=       0
          MIX   =       F          PRTMO =       F          PUNMO =       F
          TOLZ  = 1.0E-08          TOLE  = 1.0E-05
          SYMDEN=       F          PURIFY=       F

 INITIAL GUESS ORBITALS GENERATED BY MOSAVED  ROUTINE.

 STATISTICS FOR GENERATION OF SYMMETRY ORBITAL -Q- MATRIX
 NUMBER OF CARTESIAN ATOMIC ORBITALS=        154
 NUMBER OF SPHERICAL CONTAMINANTS DROPPED=     8
 NUMBER OF LINEARLY DEPENDENT MOS DROPPED=     0
 TOTAL NUMBER OF MOS IN VARIATION SPACE=     146
 ...... END OF INITIAL ORBITAL SELECTION ......
 CPU     0: STEP CPU TIME=     0.01 TOTAL CPU TIME=         24.2 (      0.4 MIN)
 TOTAL WALL CLOCK TIME=         24.7 SECONDS, CPU UTILIZATION IS    98.18%

          ---------------------------
                  UHF SCF CALCULATION
          ---------------------------

 FINAL UHF ENERGY IS     -154.6295595356 AFTER   1 ITERATIONS
 ...... END OF UHF CALCULATION ......
 CPU     0: STEP CPU TIME=     0.08 TOTAL CPU TIME=         24.3 (      0.4 MIN)
 TOTAL WALL CLOCK TIME=         24.8 SECONDS, CPU UTILIZATION IS    98.16%

 XEDA STEP ENERGY SUMMATION
 ETOT =       -154.62955954     ENUC =        103.47920740

          --------------------------------
          RESULTS OF INTERACTION ANALYSIS
          --------------------------------

     ENERGY TERMS
     T   ELECTRON KINETIC AND COULOMB POTENTIAL
     X   E-E EXCHANGE COMBINE WITH DIAGNANAL VALUE
     N   NUCLEUS-NUCLEUS REPULSION ENERGY

 --------------
 MONOMER ENERGY
 --------------

 MONOMER    1

                   OWN BASIS           ALL BASIS

 T              -93.93247421        -93.93268675
 X              -11.31276252        -11.31310786
 N               27.86801701         27.86801701
 EC              -0.47437871         -0.47491263
 E              -77.85159844        -77.85269023

 MONOMER    2

                   OWN BASIS           ALL BASIS

 T              -93.93245978        -93.93267143
 X              -11.31276034        -11.31310249
 N               27.86799964         27.86799964
 EC              -0.47438218         -0.47493662
 E              -77.85160266        -77.85271091

 ------------------------------------------------------------
 SUPER MOLECULE ENERGY  USING NON-ANTISYMMETRIC WAVEFUNCTION
 (ELECTROSTATIC ENERGY: T N CHANGE)
 ------------------------------------------------------------

              FROM OWN BASIS      FROM ALL BASIS
 T             -235.83491747       -235.84060120
 X              -22.62552287        -22.62621035
 N              103.47920740        103.47920740
 E             -154.98123294       -154.98760415

 ----------------------------------------------------------------------
 SUPER MOLECULE ENERGY  USING ANTISYMMETRIC NONORTHONORMAL WAVEFUNCTION
 (EXCHANGE ENERGY: ONLY X CHANGES)
 ----------------------------------------------------------------------

              FROM OWN BASIS      FROM ALL BASIS
 T             -235.83491747       -235.84060120
 X              -22.94730847        -22.94783714
 N              103.47920740        103.47920740
 E             -155.30301854       -155.30923093

 -----------------------------------------------------------------------
 SUPER MOLECULE ENERGY  USING ANTISYMMETRIC AND ORTHONORMAL WAVEFUNCTION
 (REPULSION ENERGY: T X CHANGE)
 -----------------------------------------------------------------------

              FROM OWN BASIS      FROM ALL BASIS
 T+X           -258.10393385       -258.10876694
 N              103.47920740        103.47920740
 E             -154.62472645       -154.62955954

 ---------------------------------------------
 SUPER MOLECULE ENERGY  USING SCF WAVEFUNCTION
 (POLARIZATION ENERGY: T X CHANGE)
 ---------------------------------------------
 T+X           -258.38882581
 N              103.47920740
 EC              -0.98625024
 E             -155.89586865


                   *******************************
                   SUMMARY OF INTERACTION ENERGIES
                     XEDA IN XIAMEN UNIVERSITY    
                    - ZHEN TANG AND PEIFENG SU -  
                   *******************************


 -------------
 OWN BASIS SET                                       HARTREE          KCAL/MOL
 -------------
 ELECTROSTATIC ENERGY                  ES=         -0.226793           -142.31
 EXCHANGE ENERGY                       EX=         -0.321786           -201.92
 REPULSION ENERGY                     REP=          0.678292            425.64
 POLARIZATION ENERGY                  POL=         -0.284892           -178.77
 ELECTRON CORRELATION                CORR=         -0.037489            -23.52
 TOTAL INTERACTION ENERGY               E=         -0.192668           -120.90
  

 -------------
 ALL BASIS SET                                       HARTREE          KCAL/MOL
 -------------
 ELECTROSTATIC ENERGY                  ES=         -0.232052           -145.62
 EXCHANGE ENERGY                       EX=         -0.321627           -201.82
 REPULSION ENERGY                     REP=          0.679671            426.50
 POLARIZATION ENERGY                  POL=         -0.280059           -175.74
 ELECTRON CORRELATION                CORR=         -0.036401            -22.84
 TOTAL INTERACTION ENERGY               E=         -0.190468           -119.52
  

                     ***************************
                     END OF INTERACTION ANALYSIS
                     ***************************

              1301896  WORDS OF DYNAMIC MEMORY USED
 EXECUTION OF GAMESS TERMINATED NORMALLY 14:32:23 25-DEC-2023    
 DDI: 263640 bytes (0.3 MB / 0 MWords) used by master data server.

 ----------------------------------------
 CPU timing information for all processes
 ========================================
 0: 23.673 + 0.663 = 24.337
 1: 23.529 + 0.525 = 24.55
 2: 23.517 + 0.573 = 24.90
 3: 23.528 + 0.546 = 24.74
 4: 23.430 + 0.670 = 24.101
 5: 23.523 + 0.516 = 24.39
 6: 23.515 + 0.575 = 24.90
 7: 23.519 + 0.499 = 24.19
 8: 23.515 + 0.584 = 24.99
 9: 23.495 + 0.496 = 23.991
 10: 23.552 + 0.542 = 24.94
 11: 23.477 + 0.535 = 24.13
 12: 23.472 + 0.547 = 24.20
 13: 23.460 + 0.519 = 23.980
 14: 23.507 + 0.528 = 24.35
 15: 23.469 + 0.525 = 23.994
 ----------------------------------------
 ddikick.x: exited gracefully.
----- accounting info -----
Files used on the master node w014 were:
-rw-r--r-- 1 xacs0647 10000  2703863 Dec 25 14:32 /job_dir/5_1685755/5.dat
-rw-r--r-- 1 xacs0647 10000      238 Dec 25 14:32 /job_dir/5_1685755/5.err
-rw-r--r-- 1 xacs0647 10000      837 Dec 25 14:31 /job_dir/5_1685755/5.F05
-rw-r--r-- 1 xacs0647 10000 54004800 Dec 25 14:32 /job_dir/5_1685755/5.F08
-rw-r--r-- 1 xacs0647 10000 51664592 Dec 25 14:32 /job_dir/5_1685755/5.F08.001
-rw-r--r-- 1 xacs0647 10000 46264112 Dec 25 14:32 /job_dir/5_1685755/5.F08.002
-rw-r--r-- 1 xacs0647 10000 51124544 Dec 25 14:32 /job_dir/5_1685755/5.F08.003
-rw-r--r-- 1 xacs0647 10000 46984176 Dec 25 14:32 /job_dir/5_1685755/5.F08.004
-rw-r--r-- 1 xacs0647 10000 49684416 Dec 25 14:32 /job_dir/5_1685755/5.F08.005
-rw-r--r-- 1 xacs0647 10000 58685216 Dec 25 14:32 /job_dir/5_1685755/5.F08.006
-rw-r--r-- 1 xacs0647 10000 51124544 Dec 25 14:32 /job_dir/5_1685755/5.F08.007
-rw-r--r-- 1 xacs0647 10000 48064272 Dec 25 14:32 /job_dir/5_1685755/5.F08.008
-rw-r--r-- 1 xacs0647 10000 46264112 Dec 25 14:32 /job_dir/5_1685755/5.F08.009
-rw-r--r-- 1 xacs0647 10000 54184816 Dec 25 14:32 /job_dir/5_1685755/5.F08.010
-rw-r--r-- 1 xacs0647 10000 50404480 Dec 25 14:32 /job_dir/5_1685755/5.F08.011
-rw-r--r-- 1 xacs0647 10000 47884256 Dec 25 14:32 /job_dir/5_1685755/5.F08.012
-rw-r--r-- 1 xacs0647 10000 49864432 Dec 25 14:32 /job_dir/5_1685755/5.F08.013
-rw-r--r-- 1 xacs0647 10000 49144368 Dec 25 14:32 /job_dir/5_1685755/5.F08.014
-rw-r--r-- 1 xacs0647 10000 50584496 Dec 25 14:32 /job_dir/5_1685755/5.F08.015
-rw-r--r-- 1 xacs0647 10000  5758720 Dec 25 14:32 /job_dir/5_1685755/5.F10
-rw-r--r-- 1 xacs0647 10000      837 Dec 25 14:31 /job_dir/5_1685755/5.inp
-rw-r--r-- 1 xacs0647 10000  2403380 Dec 25 14:32 /job_dir/5_1685755/5.out
Mon Dec 25 14:32:27 CST 2023
0.084u 0.106s 0:28.38 0.6%	0+0k 0+32io 0pf+0w
