----- GAMESS execution script 'rungms' -----
This job is running on host w011
under operating system Linux at Mon Dec 25 14:31:58 CST 2023
Available scratch disk space (Kbyte units) at beginning of the job is
Filesystem              1K-blocks     Used Available Use% Mounted on
/dev/mapper/system-root 932514944 15054900 917460044   2% /
GAMESS temporary binary files will be written to /job_dir/6_1685756
GAMESS supplementary output files will be written to /job_dir/6_1685756
Copying input file ./6.inp to your run's scratch directory...
 
Assuming a single but multicore node.
 

 Distributed Data Interface kickoff program.
 Initiating 16 compute processes on 1 nodes to run the following command:
 /share/apps/xeda-apps/xeda-td/gamess.00.x 6 

          *******************************************************
          *                                                     *
          *          GAMESS VERSION = 30 SEP 2020 (R2)          *
          *                                                     *
          *              doi.org/10.1063/5.0005188              *
          *                                                     *
          **************** 64 BIT LINUX VERSION *****************

  GAMESS HAS BEEN MADE POSSIBLE WITH IMPORTANT CONTRIBUTIONS FROM
  THE FOLLOWING INDIVIDUALS (IN ALPHABETICAL ORDER):

     IVANA ADAMOVIC, CHRISTINE AIKENS, TOMOKO AKAMA,
     YURI ALEXEEV, YURIKO AOKI, POOJA ARORA, TOSHIO ASADA,
     ANDREY ASADCHEV, KIM K. BALDRIDGE, PRADIPTA BANDYOPADHYAY,
     MARIA BARYSZ, ROB BELL, JONATHAN BENTZ, COLLEEN BERTONI,
     JERRY A. BOATZ, BRETT BODE, KURT BRORSEN, KURT R. BRORSEN,
     LAIMUTIS BYTAUTAS, CALEB CARLIN, LAURA CARRINGTON,
     GALINA CHABAN, BENOIT CHAMPAGNE, WEI CHEN, MAHITO CHIBA,
     DAN CHIPMAN, CHEOL HO CHOI, TANNER CULPITT,
     DIPAYAN DATTA, PAUL DAY, ALBERT DEFUSCO,
     NUWAN DESILVA, J. EMILIANO DEUSTUA,
     TIM DUDLEY, MICHEL DUPUIS, STEVEN T. ELBERT,
     DMITRI FEDOROV, ALEX FINDLATER, GRAHAM FLETCHER,
     MARK FREITAG, CHRISTIAN FRIEDL, DAVID GARMER,
     IGOR S. GERASIMOV, KURT GLAESEMANN, MARK S. GORDON,
     JEFFREY GOUR, FENG LONG GU, EMILIE B. GUIDEZ,
     ANASTASIA GUNINA, SHARON HAMMES-SCHIFFER, MASATAKE HARUTA,
     KIMIHIKO HIRAO, YASUHIRO IKABATA, TZVETELIN IORDANOV,
     STEPHAN IRLE, KAZUYA ISHIMURA, JOE IVANIC, FRANK JENSEN,
     JAN H. JENSEN, VISVALDAS KAIRYS, MUNEAKI KAMIYA,
     MICHIO KATOUDA, NAOAKI KAWAKAMI, DAN KEMP, BERNARD KIRTMAN,
     KAZUO KITAURA, MARIUSZ KLOBUKOWSKI, MASATO KOBAYASHI,
     PRAKASHAN KORAMBATH, JACEK KORCHOWIEC, SHIRO KOSEKI,
     KAROL KOWALSKI, JIMMY KROMANN, STANISLAW KUCHARSKI,
     HENRY KURTZ, SAROM SOK LEANG, HUI LI, SHUHUA LI, WEI LI,
     JESSE LUTZ, ALEKSANDR O. LYKHIN, MARCIN MAKOWSKI,
     JOANI MATO, NIKITA MATSUNAGA, BENEDETTA MENNUCCI,
     GRANT MERRILL, NORIYUKI MINEZAWA, VLADIMIR MIRONOV,
     EISAKU MIYOSHI, JOHN A. MONTGOMERY JR., HIROTOSHI MORI,
     JONATHAN MULLIN, MONIKA MUSIAL, SHIGERU NAGASE,
     TAKESHI NAGATA, HIROMI NAKAI, TAKAHITO NAKAJIMA,
     YUYA NAKAJIMA, HARUYUKI NAKANO, HIROYA NAKATA, SEAN NEDD,
     HEATHER NETZLOFF, KIET A. NGUYEN, YOSHIO NISHIMOTO,
     BOSILJKA NJEGIC, RYAN OLSON, MIKE PAK, ROBERTO PEVERATI,
     BUU PHAM, PIOTR PIECUCH, ANNA POMOGAEVA, DAVID POOLE,
     SPENCER PRUITT, OLIVIER QUINET, LUKE ROSKOP,
     KLAUS RUEDENBERG, ANDREW SAND, TOSAPORN SATTASATHUCHANA,
     NOZOMI SAWADA, MICHAEL W. SCHMIDT, PATRICK E. SCHNEIDER,
     JUNJI SEINO, PRACHI SHARMA, JUN SHEN, JIM SHOEMAKER,
     YINAN SHU, DEJUN SI, JONATHAN SKONE, LYUDMILA SLIPCHENKO,
     TONY SMITH, JIE SONG, MARK SPACKMAN, CASPER STEINMANN,
     WALT STEVENS, PEIFENG SU, SHUJUN SU, CHET SWALINA,
     TETSUYA TAKETSUGU, ZHEN TAO, NANDUN THELLAMUREGE
     SEIKEN TOKURA, JACOPO TOMASI, TSUGUKI TOUMA, TAKAO TSUNEDA,
     HIROAKI UMEDA, JORGE LUIS GALVEZ VALLEJO, YALI WANG,
     SIMON WEBB, AARON WEST, THERESA L. WINDUS, MARTA WLOCH,
     PENG XU, KIYOSHI YAGI, SUSUMU YANAGISAWA, YANG YANG,
     SOOHAENG YOO, TAKESHI YOSHIKAWA, FEDERICO ZAHARIEV,
     TOBY ZENG

  WHO ARE SUPPORTED BY THEIR INSTITUTION/UNIVERSITY/COMPANY/GROUP
  (IN ALPHABETICAL ORDER):

     EP ANALYTICS, FACULTES UNIVERSITAIRES NOTRE-DAME DE LA PAIX,
     INSTITUTE FOR MOLECULAR SCIENCE, IOWA STATE UNIVERSITY,
     JACKSON STATE UNIVERSITY, JOHANNES KEPLER UNIVERSITY LINZ,
     KYUSHU UNIVERSITY, MICHIGAN STATE UNIVERSITY,
     MIE UNIVERSITY, MOSCOW STATE UNIVERSITY,
     N. COPERNICUS UNIVERSITY, NAGOYA UNIVERSITY,
     NANJING UNIVERSITY, NAT. INST. OF ADVANCED INDUSTRIAL
     SCIENCE AND TECHNOLOGY, NATIONAL INST. OF STANDARDS AND
     TECHNOLOGY, NESMEYANOV INSTITUTE OF ORGANOELEMENT COMPOUNDS
     OF RUSSIAN ACADEMY OF SCIENCES, OSAKA PREFECTURE UNIVERSITY,
     PENNSYLVANIA STATE UNIVERSITY, TOKYO INSTITUTE OF TECHNOLOGY,
     UNIVERSITY OF AARHUS, UNIVERSITY OF ALBERTA,
     UNIVERSITY OF CALIFORNIA AT SANTA BARBARA,
     UNIVERSITY OF COPENHAGEN, UNIVERSITY OF IOWA,
     UNIVERSITY OF MEMPHIS, UNIVERSITY OF MINNESOTA,
     UNIVERSITY OF NEBRASKA, UNIVERSITY OF NEW ENGLAND,
     UNIVERSITY OF NOTRE DAME, UNIVERSITY OF PISA,
     UNIVERSITY OF SILESIA, UNIVERSITY OF TOKYO,
     UNIVERSITY OF ZURICH, WASEDA UNIVERSITY, YALE UNIVERSITY

  GAMESS SOFTWARE MANAGEMENT TEAM FOR THIS RELEASE:
     MARK S. GORDON (TEAM LEAD),
     BRETT BODE (SENIOR ADVISOR),
     GIUSEPPE BARCA,
     COLLEEN BERTONI,
     KRISTOPHER KEIPERT (ADVISOR),
     SAROM S. LEANG (DEVELOPMENT LEAD),
     BUU PHAM,
     JORGE LUIS GALVEZ VALLEJO (WEBSITE ADMINISTRATOR),
     PENG XU


 PARALLEL VERSION RUNNING ON       16 PROCESSORS IN        1 NODES.

 EXECUTION OF GAMESS BEGUN 14:31:59 25-DEC-2023    

            ECHO OF THE FIRST FEW INPUT CARDS -
 INPUT CARD> $CONTRL SCFTYP=UHF RUNTYP=EDA dfttyp=B3LYP ispher=1 icharg=0 mult=1 $END       
 INPUT CARD> $SYSTEM  mwords=150 memddi=150 $END                                            
 INPUT CARD> $BASIS gbasis=accd $END                                                        
 INPUT CARD> $LMOEDA MATOM(1)=5 5 MCHARG(1)=0 0 MMULT(1)=2 -2 edatyp=gks $end               
 INPUT CARD> $scf DIIS=.TRUE. ETHRSH=2.0 SWDIIS=0.005 $end                                  
 INPUT CARD> $data                                                                          
 INPUT CARD> EDA calculation with XEDA 1.0                                                  
 INPUT CARD> c1                                                                             
 INPUT CARD>C   6   -0.1649769194    0.9111723684   -1.3554453086                           
 INPUT CARD>C   6   -0.1649769194    0.9111723684    0.0016526713                           
 INPUT CARD>H   1   -0.1682625104    1.8699797866    0.5344777461                           
 INPUT CARD>H   1   -0.2027225334   -0.0168291660   -1.9334572713                           
 INPUT CARD>H   1   -0.1427316532    1.8395722925   -1.9306707128                           
 INPUT CARD>C   6   -0.1649769194   -0.3118490695    0.8561739923                           
 INPUT CARD>C   6    0.4731247819   -1.4709056791    0.5542959457                           
 INPUT CARD>H   1    1.0806576681   -1.5778674328   -0.3491287831                           
 INPUT CARD>H   1    0.4204630095   -2.3439222213    1.2087962957                           
 INPUT CARD>H   1   -0.7277639577   -0.2423244655    1.7951358159                           
 INPUT CARD> $end                                                                           
  150000000 WORDS OF MEMORY AVAILABLE

     BASIS OPTIONS
     -------------
     GBASIS=ACCD         IGAUSS=       0      POLAR=NONE    
     NDFUNC=       0     NFFUNC=       0     DIFFSP=       F
     NPFUNC=       0      DIFFS=       F     BASNAM=        


     RUN TITLE
     ---------
  EDA calculation with XEDA 1.0                                                  

 THE POINT GROUP OF THE MOLECULE IS C1      
 THE ORDER OF THE PRINCIPAL AXIS IS     0

 ATOM      ATOMIC                      COORDINATES (BOHR)
           CHARGE         X                   Y                   Z
 C           6.0    -0.3117611720        1.7218661039       -2.5614202246
 C           6.0    -0.3117611720        1.7218661039        0.0031230959
 H           1.0    -0.3179700387        3.5337493993        1.0100164867
 H           1.0    -0.3830900397       -0.0318025123       -3.6537044517
 H           1.0    -0.2697237143        3.4762875674       -3.6484386197
 C           6.0    -0.3117611720       -0.5893092909        1.6179342433
 C           6.0     0.8940761958       -2.7796086873        1.0474674535
 H           1.0     2.0421468792       -2.9817370929       -0.6597577345
 H           1.0     0.7945598759       -4.4293707348        2.2842937738
 H           1.0    -1.3752744638       -0.4579268399        3.3923148028

          INTERNUCLEAR DISTANCES (ANGS.)
          ------------------------------

                1 C          2 C          3 H          4 H          5 H     

   1 C       0.0000000    1.3570980 *  2.1192290 *  1.0939421 *  1.0923853 *
   2 C       1.3570980 *  0.0000000    1.0969161 *  2.1464534 *  2.1438971 *
   3 H       2.1192290 *  1.0969161 *  0.0000000    3.1067570    2.4654682 *
   4 H       1.0939421 *  2.1464534 *  3.1067570    0.0000000    1.8573726 *
   5 H       1.0923853 *  2.1438971 *  2.4654682 *  1.8573726 *  0.0000000  
   6 C       2.5272597 *  1.4919746 *  2.2054198 *  2.8054419 *  3.5207403  
   7 C       3.1190674    2.5272286 *  3.4019533    2.9597338 *  4.1849257  
   8 H       2.9596617 *  2.8053471 *  3.7720303    2.5678789 *  3.9594003  
   9 H       4.1849392    3.5207352    4.3079314    3.9594797    5.2607098  
  10 H       3.4019767    2.2054174 *  2.5227227 *  3.7721245    4.3079219  

                6 C          7 C          8 H          9 H         10 H     

   1 C       2.5272597 *  3.1190674    2.9596617 *  4.1849392    3.4019767  
   2 C       1.4919746 *  2.5272286 *  2.8053471 *  3.5207352    2.2054174 *
   3 H       2.2054198 *  3.4019533    3.7720303    4.3079314    2.5227227 *
   4 H       2.8054419 *  2.9597338 *  2.5678789 *  3.9594797    3.7721245  
   5 H       3.5207403    4.1849257    3.9594003    5.2607098    4.3079219  
   6 C       0.0000000    1.3570985 *  2.1464302 *  2.1439225 *  1.0969103 *
   7 C       1.3570985 *  0.0000000    1.0939439 *  1.0923836 *  2.1192520 *
   8 H       2.1464302 *  1.0939439 *  0.0000000    1.8573711 *  3.1067563  
   9 H       2.1439225 *  1.0923836 *  1.8573711 *  0.0000000    2.4655491 *
  10 H       1.0969103 *  2.1192520 *  3.1067563    2.4655491 *  0.0000000  

  * ... LESS THAN  3.000


     ATOMIC BASIS SET
     ----------------
 THE CONTRACTED PRIMITIVE FUNCTIONS HAVE BEEN UNNORMALIZED
 THE CONTRACTED BASIS FUNCTIONS ARE NOW NORMALIZED TO UNITY

  SHELL TYPE  PRIMITIVE        EXPONENT          CONTRACTION COEFFICIENT(S)

 C         

      1   S       1          6665.0000000    0.000691583963
      1   S       2          1000.0000000    0.005325796153
      1   S       3           228.0000000    0.027060721042
      1   S       4            64.7100000    0.101656846141
      1   S       5            21.0600000    0.274574823617
      1   S       6             7.4950000    0.448294318924
      1   S       7             2.7970000    0.284902610715
      1   S       8             0.5215000    0.015194859206

      2   S       9          6665.0000000   -0.000293269653
      2   S      10          1000.0000000   -0.002318035474
      2   S      11           228.0000000   -0.011499786039
      2   S      12            64.7100000   -0.046826727010
      2   S      13            21.0600000   -0.128466168750
      2   S      14             7.4950000   -0.301266272463
      2   S      15             2.7970000   -0.255630702330
      2   S      16             0.5215000    1.093793361012

      3   S      17             0.1596000    1.000000000000

      4   P      18             9.4390000    0.056979251590
      4   P      19             2.0020000    0.313207211501
      4   P      20             0.5456000    0.760376741738

      5   P      21             0.1517000    1.000000000000

      6   D      22             0.5500000    1.000000000000

      7   S      23             0.0469000    1.000000000000

      8   P      24             0.0404100    1.000000000000

      9   D      25             0.1510000    1.000000000000

 C         

     10   S      26          6665.0000000    0.000691583963
     10   S      27          1000.0000000    0.005325796153
     10   S      28           228.0000000    0.027060721042
     10   S      29            64.7100000    0.101656846141
     10   S      30            21.0600000    0.274574823617
     10   S      31             7.4950000    0.448294318924
     10   S      32             2.7970000    0.284902610715
     10   S      33             0.5215000    0.015194859206

     11   S      34          6665.0000000   -0.000293269653
     11   S      35          1000.0000000   -0.002318035474
     11   S      36           228.0000000   -0.011499786039
     11   S      37            64.7100000   -0.046826727010
     11   S      38            21.0600000   -0.128466168750
     11   S      39             7.4950000   -0.301266272463
     11   S      40             2.7970000   -0.255630702330
     11   S      41             0.5215000    1.093793361012

     12   S      42             0.1596000    1.000000000000

     13   P      43             9.4390000    0.056979251590
     13   P      44             2.0020000    0.313207211501
     13   P      45             0.5456000    0.760376741738

     14   P      46             0.1517000    1.000000000000

     15   D      47             0.5500000    1.000000000000

     16   S      48             0.0469000    1.000000000000

     17   P      49             0.0404100    1.000000000000

     18   D      50             0.1510000    1.000000000000

 H         

     19   S      51            13.0100000    0.033498726390
     19   S      52             1.9620000    0.234800801174
     19   S      53             0.4446000    0.813682957883

     20   S      54             0.1220000    1.000000000000

     21   P      55             0.7270000    1.000000000000

     22   S      56             0.0297400    1.000000000000

     23   P      57             0.1410000    1.000000000000

 H         

     24   S      58            13.0100000    0.033498726390
     24   S      59             1.9620000    0.234800801174
     24   S      60             0.4446000    0.813682957883

     25   S      61             0.1220000    1.000000000000

     26   P      62             0.7270000    1.000000000000

     27   S      63             0.0297400    1.000000000000

     28   P      64             0.1410000    1.000000000000

 H         

     29   S      65            13.0100000    0.033498726390
     29   S      66             1.9620000    0.234800801174
     29   S      67             0.4446000    0.813682957883

     30   S      68             0.1220000    1.000000000000

     31   P      69             0.7270000    1.000000000000

     32   S      70             0.0297400    1.000000000000

     33   P      71             0.1410000    1.000000000000

 C         

     34   S      72          6665.0000000    0.000691583963
     34   S      73          1000.0000000    0.005325796153
     34   S      74           228.0000000    0.027060721042
     34   S      75            64.7100000    0.101656846141
     34   S      76            21.0600000    0.274574823617
     34   S      77             7.4950000    0.448294318924
     34   S      78             2.7970000    0.284902610715
     34   S      79             0.5215000    0.015194859206

     35   S      80          6665.0000000   -0.000293269653
     35   S      81          1000.0000000   -0.002318035474
     35   S      82           228.0000000   -0.011499786039
     35   S      83            64.7100000   -0.046826727010
     35   S      84            21.0600000   -0.128466168750
     35   S      85             7.4950000   -0.301266272463
     35   S      86             2.7970000   -0.255630702330
     35   S      87             0.5215000    1.093793361012

     36   S      88             0.1596000    1.000000000000

     37   P      89             9.4390000    0.056979251590
     37   P      90             2.0020000    0.313207211501
     37   P      91             0.5456000    0.760376741738

     38   P      92             0.1517000    1.000000000000

     39   D      93             0.5500000    1.000000000000

     40   S      94             0.0469000    1.000000000000

     41   P      95             0.0404100    1.000000000000

     42   D      96             0.1510000    1.000000000000

 C         

     43   S      97          6665.0000000    0.000691583963
     43   S      98          1000.0000000    0.005325796153
     43   S      99           228.0000000    0.027060721042
     43   S     100            64.7100000    0.101656846141
     43   S     101            21.0600000    0.274574823617
     43   S     102             7.4950000    0.448294318924
     43   S     103             2.7970000    0.284902610715
     43   S     104             0.5215000    0.015194859206

     44   S     105          6665.0000000   -0.000293269653
     44   S     106          1000.0000000   -0.002318035474
     44   S     107           228.0000000   -0.011499786039
     44   S     108            64.7100000   -0.046826727010
     44   S     109            21.0600000   -0.128466168750
     44   S     110             7.4950000   -0.301266272463
     44   S     111             2.7970000   -0.255630702330
     44   S     112             0.5215000    1.093793361012

     45   S     113             0.1596000    1.000000000000

     46   P     114             9.4390000    0.056979251590
     46   P     115             2.0020000    0.313207211501
     46   P     116             0.5456000    0.760376741738

     47   P     117             0.1517000    1.000000000000

     48   D     118             0.5500000    1.000000000000

     49   S     119             0.0469000    1.000000000000

     50   P     120             0.0404100    1.000000000000

     51   D     121             0.1510000    1.000000000000

 H         

     52   S     122            13.0100000    0.033498726390
     52   S     123             1.9620000    0.234800801174
     52   S     124             0.4446000    0.813682957883

     53   S     125             0.1220000    1.000000000000

     54   P     126             0.7270000    1.000000000000

     55   S     127             0.0297400    1.000000000000

     56   P     128             0.1410000    1.000000000000

 H         

     57   S     129            13.0100000    0.033498726390
     57   S     130             1.9620000    0.234800801174
     57   S     131             0.4446000    0.813682957883

     58   S     132             0.1220000    1.000000000000

     59   P     133             0.7270000    1.000000000000

     60   S     134             0.0297400    1.000000000000

     61   P     135             0.1410000    1.000000000000

 H         

     62   S     136            13.0100000    0.033498726390
     62   S     137             1.9620000    0.234800801174
     62   S     138             0.4446000    0.813682957883

     63   S     139             0.1220000    1.000000000000

     64   P     140             0.7270000    1.000000000000

     65   S     141             0.0297400    1.000000000000

     66   P     142             0.1410000    1.000000000000

 TOTAL NUMBER OF BASIS SET SHELLS             =   66
 NUMBER OF CARTESIAN GAUSSIAN BASIS FUNCTIONS =  154
 NOTE: THIS RUN WILL RESTRICT THE MO VARIATION SPACE TO SPHERICAL HARMONICS.
 THE NUMBER OF ORBITALS KEPT IN THE VARIATIONAL SPACE WILL BE PRINTED LATER.
 NUMBER OF ELECTRONS                          =   30
 CHARGE OF MOLECULE                           =    0
 SPIN MULTIPLICITY                            =    1
 NUMBER OF OCCUPIED ORBITALS (ALPHA)          =   15
 NUMBER OF OCCUPIED ORBITALS (BETA )          =   15
 TOTAL NUMBER OF ATOMS                        =   10
 THE NUCLEAR REPULSION ENERGY IS      103.4769902061

 SELECTED MURRAY-HANDY-LAMING RADIAL GRID

 LEGACY BECKE'S FUZZY CELL METHOD

 SELECTED ORIGINAL BECKE'S PARTITION FUNCTION

     LEBEDEV GRID-BASED DFT OPTIONS
     ------------------------------
     DFTTYP=B3LYP   
     NRAD  =      96     NLEB  =     302
     NRAD0 =      24     NLEB0 =     110
     SWOFF =    5.00E-03 (PURE SCF -> DFT)
     SWITCH=    3.00E-04 (COARSE -> TIGHT GRID)
     THRESH=    0.00E+00 GTHRE=    1.00E+00

 GRIMME'S EMPIRICAL DISPERSION CORRECTION= F

     $CONTRL OPTIONS
     ---------------
 SCFTYP=UHF          RUNTYP=LMOEDA       EXETYP=RUN     
 MPLEVL=       0     CITYP =NONE         CCTYP =NONE         VBTYP =NONE    
 DFTTYP=B3LYP        TDDFT =NONE    
 MULT  =       1     ICHARG=       0     NZVAR =       0     COORD =UNIQUE  
 PP    =NONE         RELWFN=NONE         LOCAL =NONE         NUMGRD=       F
 ISPHER=       1     NOSYM =       0     MAXIT =      30     UNITS =ANGS    
 PLTORB=       F     MOLPLT=       F     AIMPAC=       F     FRIEND=        
 NPRINT=       7     IREST =       0     GEOM  =INPUT   
 NORMF =       0     NORMP =       0     ITOL  =      20     ICUT  =       9
 INTTYP=BEST         GRDTYP=BEST         QMTTOL= 1.0E-06

     $SYSTEM OPTIONS
     ---------------
  REPLICATED MEMORY=   150000000 WORDS (ON EVERY NODE).
 DISTRIBUTED MEMDDI=         150 MILLION WORDS IN AGGREGATE,
 MEMDDI DISTRIBUTED OVER  16 PROCESSORS IS     9375000 WORDS/PROCESSOR.
 TOTAL MEMORY REQUESTED ON EACH PROCESSOR=   159375000 WORDS.
 TIMLIM=      525600.00 MINUTES, OR     365.0 DAYS.
 PARALL= T  BALTYP=  DLB     KDIAG=    0  COREFL= F
 MXSEQ2=     300 MXSEQ3=     150  mem10=         0  mem22=         0

 Using Gaussians for PCM contribution to MEP, params: 0.10000E+01 0.10000E-07

          ----------------
          PROPERTIES INPUT
          ----------------

     MOMENTS            FIELD           POTENTIAL          DENSITY
 IEMOM =       1   IEFLD =       0   IEPOT =       0   IEDEN =       0
 WHERE =COMASS     WHERE =NUCLEI     WHERE =NUCLEI     WHERE =NUCLEI  
 OUTPUT=BOTH       OUTPUT=BOTH       OUTPUT=BOTH       OUTPUT=BOTH    
 IEMINT=       0   IEFINT=       0                     IEDINT=       0
                                                       MORB  =       0
          EXTRAPOLATION IN EFFECT
          DIIS IN EFFECT
          DIIS or SOSCF will be reset if energy rises
 ORBITAL PRINTING OPTION: NPREO=     1   154     2     1

     -------------------------------
     INTEGRAL TRANSFORMATION OPTIONS
     -------------------------------
     NWORD  =            0
     CUTOFF = 1.0E-09     MPTRAN =       0
     DIRTRF =       F     AOINTS =DUP     

          -----------------------------
          LOCALIZATION INPUT PARAMETERS
          -----------------------------
           LOCAL=RUEDNBRG      NOUTA=       0
          PRTLOC=       F      NOUTB=       0
          MAXLOC=     250     CVGLOC=1.00E-06
           FCORE=       F     SYMLOC=       F
          MOIDON=       F     EDCOMP=       F
          DIPDCM=       F      NPROT=       0
          QADDCM=       F     DEPRNT=       F
          POLNUM=       F     ORIENT=       F
          POLDYN=       F      VMTOL=1.50E-01
          NPRDTL=       2     IBOYAL=       1

          ----------------------
          INTEGRAL INPUT OPTIONS
          ----------------------
 NOPK  =       1 NORDER=       0 SCHWRZ=       T

     ------------------------------------------
     THE POINT GROUP IS C1 , NAXIS= 0, ORDER= 1
     ------------------------------------------

 -- VARIATIONAL SPACE WILL BE RESTRICTED TO PURE SPHERICAL HARMONICS ONLY --
 AFTER EXCLUDING CONTAMINANT COMBINATIONS FROM THE CARTESIAN GAUSSIAN BASIS
 SET, THE NUMBER OF SPHERICAL HARMONICS KEPT IN THE VARIATION SPACE IS  146

     DIMENSIONS OF THE SYMMETRY SUBSPACES ARE
 A   =  146

 ..... DONE SETTING UP THE RUN .....
 CPU     0: STEP CPU TIME=     0.03 TOTAL CPU TIME=          0.0 (      0.0 MIN)
 TOTAL WALL CLOCK TIME=          0.0 SECONDS, CPU UTILIZATION IS    82.86%

          --------------
          GKSEDA OPTIONS
          --------------
          NMOL  =       2          EDATYP=GKS     
          SUPBAS=       T          RDVECM=       F          ITRTN =       T

 *******************
 GKSEDA IS BEGINNING
 *******************

 NMOL =  2

 MONOMER     ATOM   CHARGE ELECTRON MULTIPLE
 -------------------------------------------
       1        5        0       15        2
       2        5        0       15       -2
 -------------------------------------------

 SAVING MOL INFO REQUIRES    598670 WORDS OF MEMORY.

          ********************
          1 ELECTRON INTEGRALS
          ********************
 ...... END OF ONE-ELECTRON INTEGRALS ......
 CPU     0: STEP CPU TIME=     0.01 TOTAL CPU TIME=          0.0 (      0.0 MIN)
 TOTAL WALL CLOCK TIME=          0.0 SECONDS, CPU UTILIZATION IS    84.56%

          -------------
          GUESS OPTIONS
          -------------
          GUESS =HUCKEL            NORB  =       0          NORDER=       0
          MIX   =       F          PRTMO =       F          PUNMO =       F
          TOLZ  = 1.0E-08          TOLE  = 1.0E-05
          SYMDEN=       F          PURIFY=       F

 INITIAL GUESS ORBITALS GENERATED BY HUCKEL   ROUTINE.
 HUCKEL GUESS REQUIRES    180842 WORDS.

 STATISTICS FOR GENERATION OF SYMMETRY ORBITAL -Q- MATRIX
 NUMBER OF CARTESIAN ATOMIC ORBITALS=        154
 NUMBER OF SPHERICAL CONTAMINANTS DROPPED=     8
 NUMBER OF LINEARLY DEPENDENT MOS DROPPED=     0
 TOTAL NUMBER OF MOS IN VARIATION SPACE=     146

 SYMMETRIES FOR INITIAL GUESS ORBITALS FOLLOW.  ALPHA SET(S).
    15 ORBITALS ARE OCCUPIED (    4 CORE ORBITALS).
     5=A        6=A        7=A        8=A        9=A       10=A       11=A   
    12=A       13=A       14=A       15=A       16=A       17=A       18=A   
    19=A       20=A       21=A       22=A       23=A       24=A       25=A   

 SYMMETRIES FOR INITIAL GUESS ORBITALS FOLLOW.   BETA SET(S).
    15 ORBITALS ARE OCCUPIED (    4 CORE ORBITALS).
     5=A        6=A        7=A        8=A        9=A       10=A       11=A   
    12=A       13=A       14=A       15=A       16=A       17=A       18=A   
    19=A       20=A       21=A       22=A       23=A       24=A       25=A   
 ...... END OF INITIAL ORBITAL SELECTION ......
 CPU     0: STEP CPU TIME=     0.01 TOTAL CPU TIME=          0.1 (      0.0 MIN)
 TOTAL WALL CLOCK TIME=          0.1 SECONDS, CPU UTILIZATION IS    88.30%

          -------------------------
          MONOMER  1 WITH OWN BASIS
          -------------------------

     ------------------------------------------
     THE POINT GROUP IS C1 , NAXIS= 0, ORDER= 1
     ------------------------------------------

 -- VARIATIONAL SPACE WILL BE RESTRICTED TO PURE SPHERICAL HARMONICS ONLY --
 AFTER EXCLUDING CONTAMINANT COMBINATIONS FROM THE CARTESIAN GAUSSIAN BASIS
 SET, THE NUMBER OF SPHERICAL HARMONICS KEPT IN THE VARIATION SPACE IS   73

     DIMENSIONS OF THE SYMMETRY SUBSPACES ARE
 A   =   73

          ********************
          1 ELECTRON INTEGRALS
          ********************
 ...... END OF ONE-ELECTRON INTEGRALS ......
 CPU     0: STEP CPU TIME=     0.01 TOTAL CPU TIME=          0.1 (      0.0 MIN)
 TOTAL WALL CLOCK TIME=          0.1 SECONDS, CPU UTILIZATION IS    89.07%

          -------------
          GUESS OPTIONS
          -------------
          GUESS =HUCKEL            NORB  =       0          NORDER=       0
          MIX   =       F          PRTMO =       F          PUNMO =       F
          TOLZ  = 1.0E-08          TOLE  = 1.0E-05
          SYMDEN=       F          PURIFY=       F

 INITIAL GUESS ORBITALS GENERATED BY HUCKEL   ROUTINE.
 HUCKEL GUESS REQUIRES     47410 WORDS.

 STATISTICS FOR GENERATION OF SYMMETRY ORBITAL -Q- MATRIX
 NUMBER OF CARTESIAN ATOMIC ORBITALS=         77
 NUMBER OF SPHERICAL CONTAMINANTS DROPPED=     4
 NUMBER OF LINEARLY DEPENDENT MOS DROPPED=     0
 TOTAL NUMBER OF MOS IN VARIATION SPACE=      73

 SYMMETRIES FOR INITIAL GUESS ORBITALS FOLLOW.  ALPHA SET(S).
     8 ORBITALS ARE OCCUPIED (    2 CORE ORBITALS).
     3=A        4=A        5=A        6=A        7=A        8=A        9=A   
    10=A       11=A       12=A       13=A       14=A       15=A       16=A   
    17=A       18=A   

 SYMMETRIES FOR INITIAL GUESS ORBITALS FOLLOW.   BETA SET(S).
     7 ORBITALS ARE OCCUPIED (    2 CORE ORBITALS).
     3=A        4=A        5=A        6=A        7=A        8=A        9=A   
    10=A       11=A       12=A       13=A       14=A       15=A       16=A   
    17=A   
 ...... END OF INITIAL ORBITAL SELECTION ......
 CPU     0: STEP CPU TIME=     0.00 TOTAL CPU TIME=          0.1 (      0.0 MIN)
 TOTAL WALL CLOCK TIME=          0.1 SECONDS, CPU UTILIZATION IS    89.52%

                    ----------------------
                    AO INTEGRAL TECHNOLOGY
                    ----------------------
     S,P,L SHELL ROTATED AXIS INTEGRALS, REPROGRAMMED BY
        KAZUYA ISHIMURA (IMS) AND JOSE SIERRA (SYNSTAR).
     S,P,D,L SHELL ROTATED AXIS INTEGRALS PROGRAMMED BY
        KAZUYA ISHIMURA (INSTITUTE FOR MOLECULAR SCIENCE).
     S,P,D,F,G SHELL TO TOTAL QUARTET ANGULAR MOMENTUM SUM 5,
        ERIC PROGRAM BY GRAHAM FLETCHER (ELORET AND NASA ADVANCED
        SUPERCOMPUTING DIVISION, AMES RESEARCH CENTER).
     S,P,D,F,G,L SHELL GENERAL RYS QUADRATURE PROGRAMMED BY
        MICHEL DUPUIS (PACIFIC NORTHWEST NATIONAL LABORATORY).

          --------------------
          2 ELECTRON INTEGRALS
          --------------------

 THE -PK- OPTION IS OFF, THE INTEGRALS ARE NOT IN SUPERMATRIX FORM.
 STORING   15000 INTEGRALS/RECORD ON DISK, USING 12 BYTES/INTEGRAL.
 TWO ELECTRON INTEGRAL EVALUATION REQUIRES   90957 WORDS OF MEMORY.
 SCHWARZ INEQUALITY OVERHEAD:      3003 INTEGRALS, T=        0.00
 II,JST,KST,LST =  1  1  1  1 NREC =         1 INTLOC =    1
 II,JST,KST,LST =  2  1  1  1 NREC =         1 INTLOC =    1
 II,JST,KST,LST =  3  1  1  1 NREC =         1 INTLOC =    1
 II,JST,KST,LST =  4  1  1  1 NREC =         1 INTLOC =    1
 II,JST,KST,LST =  5  1  1  1 NREC =         1 INTLOC =    1
 II,JST,KST,LST =  6  1  1  1 NREC =         1 INTLOC =    1
 II,JST,KST,LST =  7  1  1  1 NREC =         1 INTLOC =    4
 II,JST,KST,LST =  8  1  1  1 NREC =         1 INTLOC =  250
 II,JST,KST,LST =  9  1  1  1 NREC =         1 INTLOC =  250
 II,JST,KST,LST = 10  1  1  1 NREC =         1 INTLOC =  250
 II,JST,KST,LST = 11  1  1  1 NREC =         1 INTLOC =  288
 II,JST,KST,LST = 12  1  1  1 NREC =         1 INTLOC = 1614
 II,JST,KST,LST = 13  1  1  1 NREC =         1 INTLOC = 1614
 II,JST,KST,LST = 14  1  1  1 NREC =         1 INTLOC = 1614
 II,JST,KST,LST = 15  1  1  1 NREC =         1 INTLOC = 5399
 II,JST,KST,LST = 16  1  1  1 NREC =         1 INTLOC = 7313
 II,JST,KST,LST = 17  1  1  1 NREC =         1 INTLOC = 7313
 II,JST,KST,LST = 18  1  1  1 NREC =         1 INTLOC = 9260
 II,JST,KST,LST = 19  1  1  1 NREC =         2 INTLOC =  477
 II,JST,KST,LST = 20  1  1  1 NREC =         2 INTLOC =  477
 II,JST,KST,LST = 21  1  1  1 NREC =         2 INTLOC = 3181
 II,JST,KST,LST = 22  1  1  1 NREC =         3 INTLOC = 2739
 II,JST,KST,LST = 23  1  1  1 NREC =         4 INTLOC = 4712
 II,JST,KST,LST = 24  1  1  1 NREC =         5 INTLOC = 1787
 II,JST,KST,LST = 25  1  1  1 NREC =         5 INTLOC = 6735
 II,JST,KST,LST = 26  1  1  1 NREC =         6 INTLOC = 3015
 II,JST,KST,LST = 27  1  1  1 NREC =         8 INTLOC =  579
 II,JST,KST,LST = 28  1  1  1 NREC =         9 INTLOC =14360
 II,JST,KST,LST = 29  1  1  1 NREC =        12 INTLOC =11976
 II,JST,KST,LST = 30  1  1  1 NREC =        14 INTLOC =14647
 II,JST,KST,LST = 31  1  1  1 NREC =        14 INTLOC =14647
 II,JST,KST,LST = 32  1  1  1 NREC =        18 INTLOC =10488
 II,JST,KST,LST = 33  1  1  1 NREC =        18 INTLOC =10488
 SCHWARZ INEQUALITY TEST SKIPPED           0 INTEGRAL BLOCKS.
 TOTAL NUMBER OF NONZERO TWO-ELECTRON INTEGRALS =             3900189
        270 INTEGRAL RECORDS WERE STORED ON DISK FILE  8.
  ...... END OF TWO-ELECTRON INTEGRALS .....
 CPU     0: STEP CPU TIME=     0.03 TOTAL CPU TIME=          0.1 (      0.0 MIN)
 TOTAL WALL CLOCK TIME=          0.1 SECONDS, CPU UTILIZATION IS    90.38%

          ---------------------------
              U-B3LYP SCF CALCULATION
          ---------------------------

     NUCLEAR ENERGY =        27.8693511447
     MAXIT = 30     NPUNCH=  2     MULT=  2
     EXTRAP=T  DAMP=F  SHIFT=F  RSTRCT=F  DIIS=T  SOSCF=T
         DENSITY MATRIX CONVERGENCE THRESHOLD=  1.00E-05
     COARSE -> FINE DFT GRID SWITCH THRESHOLD=  3.00E-04 (SWITCH IN $DFT)
                   HF -> DFT SWITCH THRESHOLD=  5.00E-03 (SWOFF IN $DFT)
     SOSCF WILL OPTIMIZE     520 ALPHA AND     462 BETA ROTATION ANGLES.
     SOGTOL= 2.500E-01
     MEMORY REQUIRED FOR UHF/ROHF ITERS=    298732 WORDS.

     EXCHANGE FUNCTIONAL   =B88&HFX   
     CORRELATION FUNCTIONAL=LYP88&VWN5
     DFT THRESHOLD         =.690E-08
     GRID CHANGE THRESHOLD =.300E-03
 FOR AN EULER-MACLAURIN QUADRATURE USING  96 RADIAL POINTS:
 SMALLEST GAUSSIAN PRIMITIVE EXPONENT=        0.0297400000 OF TYPE -S-
 ON ATOM NUMBER   3 HAS RADIAL NORMALIZATION=  1.000000
  LARGEST GAUSSIAN PRIMITIVE EXPONENT=     6665.0000000000 OF TYPE -S-
 ON ATOM NUMBER   1 HAS RADIAL NORMALIZATION=  1.000000
 DFT IS SWITCHED OFF, PERFORMING PURE SCF UNTIL SWOFF THRESHOLD IS REACHED.

 ITER EX      TOTAL ENERGY        E CHANGE  DENSITY CHANGE    DIIS ERROR
          * * *   INITIATING DIIS PROCEDURE   * * *
   1  0      -77.1743370879   -77.1743370879   0.500554250   0.356428987
   2  1      -77.3684212737    -0.1940841858   0.154173566   0.054179630
   3  2      -77.3844591177    -0.0160378440   0.031220694   0.026032371
   4  3      -77.3888761385    -0.0044170208   0.022152235   0.011269095
   5  4      -77.3902680180    -0.0013918796   0.012938449   0.008582992
   6  5      -77.3909204645    -0.0006524464   0.024391676   0.008583259
   7  6      -77.3919908270    -0.0010703626   0.063792726   0.008340500
   8  7      -77.3943651325    -0.0023743055   0.113908160   0.006515143
   9  8      -77.3959403218    -0.0015751893   0.070333119   0.002158239
  10  9      -77.3954947313     0.0004455905   0.043486858   0.004209339
  11 10      -77.3960210790    -0.0005263477   0.007529242   0.000759077
  12 11      -77.3960369584    -0.0000158793   0.000471212   0.000095986
 CONVERGED TO SWOFF, SO DFT CALCULATION IS NOW SWITCHED ON.
          * * *   INITIATING DIIS PROCEDURE   * * *
  13 12      -77.8298104322    -0.4337734738   0.394877894   0.062206865
  14 13      -77.8464203554    -0.0166099233   0.062732427   0.016748468
  15 14      -77.8491059264    -0.0026855710   0.024649147   0.011963529
  16 15      -77.8505644773    -0.0014585509   0.050639627   0.007384309
  17 16      -77.8515472098    -0.0009827324   0.009213536   0.003438426
  18 17      -77.8516307263    -0.0000835166   0.006031226   0.001413054
  19 18      -77.8516506824    -0.0000199560   0.002038510   0.000279584
         SWDIIS THRESHOLD HAS BEEN REACHED: SWITCHING DIIS OFF.
          ---------------START SECOND ORDER SCF---------------
  20 19      -77.8516518533    -0.0000011710   0.000137203   0.000022266
  21 20      -77.8516518661    -0.0000000127   0.000156262   0.000023349
  22 21      -77.8516518667    -0.0000000007   0.000065793   0.000021765
  23 22      -77.8516518711    -0.0000000044   0.000008779   0.000002405
  24 23      -77.8516518712    -0.0000000001   0.000012116   0.000001939

          ----------------
          ENERGY CONVERGED
          ----------------
     TIME TO FORM FOCK OPERATORS=       1.2 SECONDS (       0.1 SEC/ITER)
     TIME TO SOLVE SCF EQUATIONS=       0.1 SECONDS (       0.0 SEC/ITER)

 FINAL U-B3LYP ENERGY IS      -77.8516518712 AFTER  24 ITERATIONS
 DFT EXCHANGE + CORRELATION ENERGY =        -9.5246436728
 TOTAL ELECTRON NUMBER             =        14.9999939018

          --------------------
          SPIN SZ   =    0.500
          S-SQUARED =    0.764
          --------------------

  ----- ALPHA SET ----- 

          ------------
          EIGENVECTORS
          ------------

                      1          2          3          4          5
                  -10.2293   -10.2020    -0.7670    -0.5781    -0.4644
                     A          A          A          A          A   
    1  C  1  S    0.012025   1.009648  -0.019640   0.011326  -0.002214
    2  C  1  S   -0.001522   0.022150   0.316189  -0.227371   0.000373
    3  C  1  S    0.040179  -0.073283   0.096281  -0.323439  -0.034190
    4  C  1  X   -0.000017  -0.000010  -0.000160   0.001491   0.008472
    5  C  1  Y   -0.000025  -0.000004   0.008064   0.031281   0.341412
    6  C  1  Z   -0.001001  -0.000354   0.110502   0.207417  -0.208833
    7  C  1  X    0.000124   0.000088   0.000500  -0.000425  -0.000876
    8  C  1  Y   -0.001290  -0.000289   0.023837   0.028014  -0.015798
    9  C  1  Z    0.038711  -0.008922  -0.028863  -0.242161   0.040596
   10  C  1 XX    0.000211  -0.001624  -0.006313   0.001483  -0.001729
   11  C  1 YY    0.000859   0.000835  -0.007546  -0.011280   0.008561
   12  C  1 ZZ   -0.001070   0.000789   0.013858   0.009797  -0.006831
   13  C  1 XY    0.000030   0.000090  -0.000076  -0.000469   0.000186
   14  C  1 XZ    0.000011   0.000020   0.000002  -0.000163  -0.000340
   15  C  1 YZ    0.000470   0.000058   0.000223   0.002358  -0.006038
   16  C  1  S    0.015210  -0.033868   0.016396   0.137981  -0.061012
   17  C  1  X    0.000054   0.000043  -0.000310  -0.000056  -0.001850
   18  C  1  Y    0.000747   0.000801  -0.003689   0.008953  -0.058567
   19  C  1  Z    0.006199  -0.003672  -0.001980   0.011634  -0.009152
   20  C  1 XX   -0.002137   0.004866   0.006250  -0.007096  -0.006467
   21  C  1 YY   -0.004494   0.001505  -0.008170   0.105887  -0.044824
   22  C  1 ZZ    0.006631  -0.006371   0.001919  -0.098791   0.051291
   23  C  1 XY   -0.000070  -0.000107  -0.001070   0.003296  -0.001553
   24  C  1 XZ   -0.000093  -0.000077   0.000823   0.000316   0.003554
   25  C  1 YZ   -0.003092  -0.001088   0.024728   0.020263   0.104840
   26  C  2  S    1.009987  -0.013602  -0.017081  -0.006417  -0.000334
   27  C  2  S    0.022724  -0.001364   0.307159   0.268873  -0.070795
   28  C  2  S   -0.089952   0.024450   0.252295   0.492579  -0.242356
   29  C  2  X   -0.000021  -0.000005  -0.000542  -0.000635   0.003542
   30  C  2  Y    0.000906   0.000107   0.024727   0.097815   0.255914
   31  C  2  Z   -0.000220   0.000908  -0.128085   0.118486   0.162654
   32  C  2  X    0.000086   0.000058  -0.000762  -0.000490  -0.000326
   33  C  2  Y   -0.003321  -0.001152  -0.057738  -0.094159   0.008898
   34  C  2  Z    0.030803  -0.016844  -0.090827  -0.220026   0.064037
   35  C  2 XX   -0.000848   0.000671  -0.011416  -0.001414  -0.000481
   36  C  2 YY    0.000528   0.000641  -0.003944   0.009839   0.005783
   37  C  2 ZZ    0.000320  -0.001312   0.015360  -0.008425  -0.005302
   38  C  2 XY    0.000010  -0.000006   0.000348   0.000180  -0.000182
   39  C  2 XZ   -0.000007   0.000005  -0.000133  -0.000284  -0.000386
   40  C  2 YZ    0.000879   0.000045  -0.006175  -0.001645  -0.009700
   41  C  2  S   -0.028948   0.019725  -0.018966  -0.117891   0.022912
   42  C  2  X   -0.000017  -0.000005   0.000231  -0.000085   0.000628
   43  C  2  Y   -0.001402  -0.001326  -0.000389  -0.026879   0.018129
   44  C  2  Z    0.004246  -0.005739   0.006531   0.004886  -0.013425
   45  C  2 XX    0.005983  -0.001055  -0.006736   0.006253   0.001281
   46  C  2 YY    0.004271  -0.001761  -0.017909  -0.059999  -0.008154
   47  C  2 ZZ   -0.010253   0.002816   0.024645   0.053746   0.006873
   48  C  2 XY   -0.000029  -0.000020   0.000652  -0.000663   0.000315
   49  C  2 XZ   -0.000027  -0.000032   0.000501  -0.000267   0.000850
   50  C  2 YZ   -0.004204  -0.001158   0.008740  -0.021390   0.013516
   51  H  3  S   -0.000654  -0.000108   0.124708   0.258417   0.194262
   52  H  3  S    0.021382   0.007223   0.065221   0.272172   0.107448
   53  H  3  X   -0.000003   0.000005   0.000011   0.000170   0.000232
   54  H  3  Y    0.001720  -0.000002  -0.012840  -0.016859  -0.005923
   55  H  3  Z    0.000721   0.000179  -0.011243  -0.009865  -0.005229
   56  H  3  S    0.001285   0.001915   0.003693   0.025945   0.010414
   57  H  3  X    0.000042   0.000019  -0.000244   0.000991  -0.000152
   58  H  3  Y   -0.007719  -0.002238  -0.007783  -0.042520  -0.011699
   59  H  3  Z   -0.002022  -0.000909  -0.017486  -0.029309  -0.010466
   60  H  4  S   -0.000340  -0.000856   0.116498  -0.229542  -0.141365
   61  H  4  S    0.017772   0.021906  -0.010779  -0.218710  -0.197944
   62  H  4  X   -0.000008  -0.000065   0.000560  -0.000768  -0.000177
   63  H  4  Y   -0.000209  -0.001548   0.014313  -0.016898   0.000645
   64  H  4  Z   -0.000618  -0.001024   0.012546  -0.005442  -0.009983
   65  H  4  S    0.001757   0.001995  -0.000007  -0.012891  -0.041522
   66  H  4  X    0.000196   0.000285  -0.000499  -0.001744  -0.002265
   67  H  4  Y    0.004823   0.006779  -0.009274  -0.020639  -0.049247
   68  H  4  Z    0.002471   0.003037   0.008763  -0.034327   0.011285
   69  H  5  S   -0.000194  -0.000913   0.126705  -0.203127   0.340758
   70  H  5  S    0.009359   0.018994   0.015542  -0.225298   0.435602
   71  H  5  X   -0.000008   0.000030  -0.000347   0.000450  -0.000245
   72  H  5  Y   -0.000075   0.001518  -0.014528   0.016653  -0.010209
   73  H  5  Z   -0.000424  -0.000942   0.011273  -0.004905   0.005061
   74  H  5  S    0.001711   0.001155   0.002177  -0.013847   0.045332
   75  H  5  X   -0.000080  -0.000153   0.000464   0.000666  -0.001129
   76  H  5  Y   -0.002369  -0.006008   0.000375   0.020138  -0.072818
   77  H  5  Z    0.001973   0.002949  -0.001898  -0.053811   0.040756

                      6          7          8          9         10
                   -0.4136    -0.2851    -0.2737    -0.0198    -0.0019
                     A          A          A          A          A   
    1  C  1  S   -0.000005  -0.000107   0.000559   0.000060  -0.002967
    2  C  1  S   -0.036785  -0.005096   0.050175   0.003126   0.084600
    3  C  1  S   -0.169175  -0.001756   0.024096   0.006913   0.345205
    4  C  1  X   -0.012646   0.390071   0.036413   0.403751  -0.000494
    5  C  1  Y   -0.254268  -0.000019  -0.135986  -0.013737   0.029792
    6  C  1  Z   -0.320123  -0.017413   0.112513  -0.001233  -0.096055
    7  C  1  X    0.000171   0.214650   0.023631   0.338676  -0.001650
    8  C  1  Y    0.060916  -0.010829   0.032205  -0.010119   0.041880
    9  C  1  Z   -0.091367   0.000211  -0.021156  -0.000497  -0.283593
   10  C  1 XX   -0.001148  -0.000028   0.000491   0.000050   0.000937
   11  C  1 YY    0.010506   0.000141  -0.000739  -0.000024  -0.002783
   12  C  1 ZZ   -0.009358  -0.000113   0.000247  -0.000026   0.001846
   13  C  1 XY    0.000512   0.000638   0.000168   0.000055  -0.000067
   14  C  1 XZ    0.000008   0.021465   0.003235  -0.030076   0.000016
   15  C  1 YZ    0.013797  -0.004015   0.040232   0.000008   0.001438
   16  C  1  S   -0.038138  -0.016803   0.157161  -0.000082   1.294513
   17  C  1  X    0.001134   0.028553   0.003971   0.561845   0.000154
   18  C  1  Y    0.051598  -0.002631   0.020082  -0.018225   0.037557
   19  C  1  Z   -0.014592  -0.004690   0.039970  -0.004328  -0.298978
   20  C  1 XX   -0.000056   0.000694  -0.005683  -0.000392  -0.039339
   21  C  1 YY   -0.043625  -0.003738   0.029273   0.000165   0.024673
   22  C  1 ZZ    0.043680   0.003045  -0.023590   0.000227   0.014666
   23  C  1 XY   -0.003129   0.004458   0.000965  -0.003258   0.002057
   24  C  1 XZ   -0.001280   0.003858  -0.000982  -0.041804   0.001406
   25  C  1 YZ   -0.052133   0.002679  -0.034648   0.003029   0.026983
   26  C  2  S   -0.000853  -0.000046  -0.000751   0.000023  -0.002512
   27  C  2  S    0.031445   0.017531  -0.150842  -0.003591   0.056141
   28  C  2  S   -0.055113   0.034866  -0.311975  -0.008320   0.366082
   29  C  2  X   -0.006990   0.439494   0.054957  -0.412024   0.000270
   30  C  2  Y    0.036849  -0.053354   0.470317   0.003530   0.044082
   31  C  2  Z    0.374635   0.033904  -0.255432  -0.002837   0.082518
   32  C  2  X   -0.002469   0.254368   0.033839  -0.348846  -0.000928
   33  C  2  Y   -0.065676  -0.025966   0.238832   0.000595   0.099477
   34  C  2  Z    0.046469   0.025630  -0.221316  -0.001366  -0.007870
   35  C  2 XX   -0.001572   0.000165  -0.004800   0.000132  -0.001701
   36  C  2 YY    0.011100   0.000309   0.000145  -0.000023  -0.004888
   37  C  2 ZZ   -0.009528  -0.000473   0.004656  -0.000109   0.006589
   38  C  2 XY    0.000064  -0.000472  -0.000488  -0.000080  -0.000064
   39  C  2 XZ    0.000427  -0.020331  -0.001630  -0.032088  -0.000040
   40  C  2 YZ    0.017651  -0.001244   0.020361   0.001404  -0.003640
   41  C  2  S   -0.015201   0.028074  -0.260362  -0.000646   0.873026
   42  C  2  X   -0.000115   0.031200   0.004262  -0.513872   0.000221
   43  C  2  Y   -0.035982  -0.002451   0.023204   0.008727   0.190449
   44  C  2  Z   -0.015017  -0.001088   0.007221  -0.004580   0.144865
   45  C  2 XX   -0.003815  -0.001102   0.006989   0.000589  -0.039464
   46  C  2 YY   -0.036902   0.002556  -0.023129  -0.000741  -0.012509
   47  C  2 ZZ    0.040717  -0.001453   0.016140   0.000152   0.051973
   48  C  2 XY    0.000950  -0.001275  -0.000595   0.008335  -0.000243
   49  C  2 XZ    0.000055  -0.007161  -0.000925  -0.037658   0.000489
   50  C  2 YZ   -0.017044   0.000798  -0.011602   0.002652   0.032792
   51  H  3  S    0.233157  -0.018383   0.195577   0.006951   0.005001
   52  H  3  S    0.277691  -0.023428   0.249359   0.006617  -0.357712
   53  H  3  X   -0.000143   0.015586   0.002031  -0.020909   0.000048
   54  H  3  Y   -0.009316  -0.000732   0.006628   0.000245  -0.010724
   55  H  3  Z    0.001120   0.001950  -0.015874  -0.000110  -0.001476
   56  H  3  S    0.036889  -0.002052   0.027682   0.009635  -0.895602
   57  H  3  X   -0.000186   0.015323   0.002427  -0.053322  -0.000302
   58  H  3  Y   -0.038818   0.001556  -0.018150   0.002581   0.031624
   59  H  3  Z   -0.035856   0.003540  -0.029021   0.000583   0.032784
   60  H  4  S    0.324643  -0.011510   0.144954  -0.005259   0.007009
   61  H  4  S    0.391406  -0.015011   0.192832  -0.007898  -0.404992
   62  H  4  X    0.000299   0.014338   0.001498   0.021809   0.000347
   63  H  4  Y    0.009599  -0.000424  -0.000980  -0.000640   0.009642
   64  H  4  Z    0.003193  -0.000708   0.005109   0.000093   0.002086
   65  H  4  S    0.036173  -0.003118   0.039675  -0.013182  -0.639427
   66  H  4  X    0.002271   0.015532   0.002806   0.045416  -0.002978
   67  H  4  Y    0.054923  -0.003725   0.035371  -0.001016  -0.063649
   68  H  4  Z    0.052481  -0.000390   0.003503   0.001635  -0.017300
   69  H  5  S   -0.073029   0.019659  -0.209520   0.000711   0.003813
   70  H  5  S   -0.184275   0.031809  -0.336944   0.003407  -0.418501
   71  H  5  X   -0.000249   0.014279   0.001489   0.022643  -0.000287
   72  H  5  Y   -0.003139  -0.000462  -0.000090  -0.000657  -0.012247
   73  H  5  Z   -0.010882  -0.000191   0.000237  -0.000216   0.003414
   74  H  5  S   -0.043366   0.002940  -0.041752   0.001180  -1.138343
   75  H  5  X    0.002193   0.012629   0.002617   0.052781   0.001229
   76  H  5  Y    0.050985  -0.004331   0.043107  -0.002018   0.036052
   77  H  5  Z   -0.005941   0.002617  -0.023219  -0.000764  -0.024293

                     11         12         13         14         15
                    0.0149     0.0251     0.0627     0.0711     0.0791
                     A          A          A          A          A   
    1  C  1  S   -0.001285   0.002437   0.000609   0.007603   0.002867
    2  C  1  S    0.067408  -0.017245  -0.000976  -0.012514   0.043744
    3  C  1  S    0.186758  -0.130314  -0.034783  -0.388723   0.155401
    4  C  1  X   -0.004196  -0.004574   0.172354  -0.011087   0.001754
    5  C  1  Y   -0.067595  -0.118183  -0.003637   0.037748   0.012088
    6  C  1  Z   -0.036348   0.005010   0.000215   0.013700   0.054489
    7  C  1  X   -0.008216  -0.013415   0.200282  -0.008258  -0.000293
    8  C  1  Y   -0.171700  -0.371742  -0.005114   0.102318   0.010840
    9  C  1  Z   -0.273379   0.104630  -0.015493   0.036495  -0.044034
   10  C  1 XX    0.002789  -0.003169  -0.000342  -0.007365  -0.006875
   11  C  1 YY    0.004887  -0.001762   0.000093   0.001129  -0.010929
   12  C  1 ZZ   -0.007675   0.004931   0.000249   0.006237   0.017804
   13  C  1 XY   -0.000054   0.000014  -0.000810   0.000340  -0.000221
   14  C  1 XZ    0.000148  -0.000127   0.006074  -0.000524  -0.000038
   15  C  1 YZ   -0.004769  -0.003809  -0.000846  -0.010510   0.003142
   16  C  1  S    0.444050  -1.767326  -0.791117 -10.801435   1.450801
   17  C  1  X   -0.023796  -0.058799  -0.625736   0.057782  -0.024149
   18  C  1  Y   -0.207025  -1.937781   0.081940   0.432166  -0.489808
   19  C  1  Z   -0.531681  -0.379980  -0.336247  -4.809716  -1.588227
   20  C  1 XX   -0.010919   0.016801   0.006954   0.080376   0.023129
   21  C  1 YY    0.022181  -0.051624  -0.006330  -0.154581   0.016011
   22  C  1 ZZ   -0.011262   0.034823  -0.000624   0.074205  -0.039140
   23  C  1 XY    0.000935  -0.000592   0.023267  -0.009790   0.001287
   24  C  1 XZ    0.000502   0.002258   0.041145  -0.001949   0.004560
   25  C  1 YZ   -0.042841   0.099121  -0.005046   0.004478   0.112469
   26  C  2  S   -0.001268  -0.000753  -0.000860  -0.005503   0.005539
   27  C  2  S   -0.072989   0.048283   0.002363   0.040732   0.031169
   28  C  2  S   -0.231693   0.248352   0.056259   0.426527   0.052187
   29  C  2  X    0.002173  -0.001466   0.127716  -0.010156   0.002132
   30  C  2  Y   -0.085053  -0.045948  -0.011702  -0.142209   0.060799
   31  C  2  Z   -0.027550   0.023474   0.001477   0.005009  -0.075453
   32  C  2  X    0.003543  -0.000170   0.145416  -0.014991   0.000455
   33  C  2  Y   -0.160459   0.096035   0.015400   0.117073  -0.140283
   34  C  2  Z   -0.247873   0.149218  -0.009754   0.046889  -0.061702
   35  C  2 XX   -0.003382   0.001465   0.000026   0.001499  -0.009962
   36  C  2 YY   -0.001709   0.002172   0.000061  -0.000472  -0.013569
   37  C  2 ZZ    0.005092  -0.003637  -0.000087  -0.001027   0.023532
   38  C  2 XY   -0.000194  -0.000025   0.003959  -0.000157  -0.000022
   39  C  2 XZ    0.000365   0.000334  -0.013365   0.001001  -0.000133
   40  C  2 YZ    0.008197   0.007515   0.000590   0.001870  -0.006768
   41  C  2  S   -0.501900   2.305673   0.826107  11.100460  -0.250339
   42  C  2  X    0.011564   0.020722  -0.592728   0.060852  -0.008361
   43  C  2  Y   -0.553472   1.023931  -0.000905   0.315005  -0.056422
   44  C  2  Z   -0.617990  -0.240450  -0.329504  -4.184775   1.858036
   45  C  2 XX    0.007846  -0.041087  -0.007255  -0.076263   0.063174
   46  C  2 YY   -0.063448   0.033656   0.005784   0.085392  -0.026547
   47  C  2 ZZ    0.055602   0.007431   0.001472  -0.009129  -0.036627
   48  C  2 XY    0.000305   0.000520  -0.039528   0.003150  -0.002329
   49  C  2 XZ    0.000137   0.000082  -0.015100   0.001783   0.000696
   50  C  2 YZ   -0.072031   0.084680   0.001018   0.060172   0.082731
   51  H  3  S    0.016210   0.014918  -0.000330  -0.022943  -0.018639
   52  H  3  S    0.670344  -0.551160  -0.063922  -0.853880   0.210543
   53  H  3  X    0.000069   0.000110  -0.005754   0.000411  -0.000005
   54  H  3  Y    0.010319   0.000120   0.000876   0.009834  -0.008493
   55  H  3  Z    0.008159  -0.000446   0.000212   0.005285   0.007002
   56  H  3  S    2.551437  -1.436589   0.238468   3.488445  -0.135841
   57  H  3  X    0.000701  -0.001302   0.039431  -0.004699   0.000798
   58  H  3  Y   -0.083508   0.134428   0.011130   0.138472  -0.085126
   59  H  3  Z   -0.020856   0.003514   0.015258   0.139176  -0.096139
   60  H  4  S   -0.009458   0.012778  -0.001546  -0.022780  -0.023636
   61  H  4  S   -0.449228  -0.450840   0.030502   0.592490  -0.341205
   62  H  4  X    0.000177   0.000179  -0.003524   0.000266   0.000117
   63  H  4  Y    0.007563   0.002765   0.000188  -0.000189   0.003587
   64  H  4  Z    0.007170   0.002808  -0.000572  -0.010526  -0.011407
   65  H  4  S   -2.046053  -3.108510   0.019226   0.448074  -1.129373
   66  H  4  X   -0.002319  -0.002085   0.070336  -0.002084   0.000730
   67  H  4  Y   -0.060506  -0.052258  -0.002216   0.032014  -0.010919
   68  H  4  Z   -0.008393  -0.053428   0.004760   0.146156   0.029115
   69  H  5  S    0.002721  -0.002563   0.001364   0.025612  -0.038557
   70  H  5  S   -0.159235   0.860800   0.013017   0.408354   0.095271
   71  H  5  X   -0.000299   0.000013  -0.004190   0.000217  -0.000245
   72  H  5  Y   -0.002434   0.004235   0.000160  -0.001315  -0.006278
   73  H  5  Z    0.003243  -0.007284  -0.000157  -0.002309  -0.014254
   74  H  5  S   -0.482481   3.803966  -0.304686  -4.352426   0.566426
   75  H  5  X    0.002076  -0.002179   0.031281  -0.002740  -0.001454
   76  H  5  Y    0.063699  -0.092235  -0.000113  -0.002525  -0.090597
   77  H  5  Z    0.051560   0.068509   0.005221   0.101631   0.038308

                     16         17         18         19         20
                    0.1118     0.1126     0.1167     0.1280     0.1459
                     A          A          A          A          A   
    1  C  1  S    0.005691  -0.001538  -0.038805  -0.014855  -0.014930
    2  C  1  S   -0.057560   0.015291  -0.204919  -0.019359  -0.119998
    3  C  1  S   -0.979245   0.272563   0.322911   0.525366   0.528909
    4  C  1  X   -0.059114  -0.228680  -0.002236   0.009082   0.001874
    5  C  1  Y    0.111932  -0.023024  -0.084263   0.237350   0.038474
    6  C  1  Z    0.002835  -0.000768   0.121347   0.001657   0.130017
    7  C  1  X   -0.064388  -0.175801  -0.001459  -0.034206  -0.005821
    8  C  1  Y   -0.407052   0.120691   0.293840  -0.932200  -0.169262
    9  C  1  Z   -1.191510   0.356438  -1.553428  -0.380903   1.552245
   10  C  1 XX    0.000691  -0.000296   0.019903   0.016651  -0.039483
   11  C  1 YY   -0.000149   0.000035   0.003834  -0.008104   0.048760
   12  C  1 ZZ   -0.000542   0.000261  -0.023737  -0.008547  -0.009278
   13  C  1 XY   -0.000712  -0.001113  -0.000551  -0.000644   0.002499
   14  C  1 XZ    0.002084   0.006561  -0.000246   0.000354  -0.000565
   15  C  1 YZ    0.023365  -0.006356  -0.007324   0.009129  -0.016587
   16  C  1  S   -5.570355   1.371847   5.083446   5.287483   0.133306
   17  C  1  X    0.551519   2.166358   0.040982  -0.179255  -0.068770
   18  C  1  Y   -0.318132   0.038579   1.841255  -6.050769  -2.446885
   19  C  1  Z   -3.515304   0.941214  -1.939562   1.705826   0.559747
   20  C  1 XX    0.046138  -0.011979  -0.160688  -0.036974  -0.096467
   21  C  1 YY    0.174634  -0.054892   0.341959   0.199191  -0.662247
   22  C  1 ZZ   -0.220772   0.066871  -0.181271  -0.162217   0.758714
   23  C  1 XY    0.014986   0.030904   0.016427   0.013590  -0.017237
   24  C  1 XZ    0.016256   0.054614   0.002114   0.007813   0.015401
   25  C  1 YZ   -0.058276   0.015335  -0.013931   0.331709   0.319916
   26  C  2  S    0.008490  -0.002412  -0.035951  -0.026276   0.024638
   27  C  2  S    0.109087  -0.029532  -0.112461  -0.099173   0.012773
   28  C  2  S    0.458433  -0.133459   1.278485   0.779282  -2.184366
   29  C  2  X    0.064013   0.232439   0.000360  -0.000103   0.001252
   30  C  2  Y    0.173851  -0.050563  -0.007692   0.001927  -0.094087
   31  C  2  Z    0.057136  -0.014791  -0.085163  -0.008493  -0.067872
   32  C  2  X    0.067306   0.218582  -0.003347   0.001580  -0.011290
   33  C  2  Y   -0.356849   0.111766   0.135114   0.406584  -0.511332
   34  C  2  Z   -1.321111   0.392234  -0.894824   0.124759   1.096065
   35  C  2 XX   -0.004702   0.001402   0.005349   0.013450  -0.011878
   36  C  2 YY    0.005953  -0.001546   0.002527  -0.007842   0.017838
   37  C  2 ZZ   -0.001251   0.000144  -0.007877  -0.005608  -0.005960
   38  C  2 XY    0.001314   0.005817  -0.000337  -0.000533   0.000902
   39  C  2 XZ    0.000513   0.004055   0.000114  -0.000614   0.000336
   40  C  2 YZ   -0.015660   0.003606   0.004101  -0.016951   0.001530
   41  C  2  S    3.988183  -0.927746   2.615524  -0.909829  -1.919917
   42  C  2  X   -0.584557  -2.155586  -0.013593   0.047830   0.013596
   43  C  2  Y   -2.699193   0.800213  -0.765820   3.509639   0.702160
   44  C  2  Z   -4.072212   1.091543  -0.143762   2.245810   1.083605
   45  C  2 XX    0.008210  -0.003225  -0.127795  -0.070915  -0.023559
   46  C  2 YY   -0.298464   0.088023  -0.129020   0.041159   0.197144
   47  C  2 ZZ    0.290254  -0.084798   0.256815   0.029757  -0.173584
   48  C  2 XY   -0.015236  -0.060091  -0.001479  -0.000002   0.006025
   49  C  2 XZ    0.023227   0.082253   0.001658  -0.000779   0.003222
   50  C  2 YZ   -0.238153   0.067926   0.093957   0.142376   0.188969
   51  H  3  S   -0.020579   0.001404   0.011173  -0.087458   0.103316
   52  H  3  S    2.183635  -0.660285  -0.532847  -1.785896   0.602540
   53  H  3  X    0.000091   0.000620   0.000003  -0.000081  -0.000027
   54  H  3  Y   -0.019160   0.005538   0.011422   0.011083  -0.008222
   55  H  3  Z   -0.011479   0.003492  -0.001871   0.015158  -0.005280
   56  H  3  S    5.981113  -1.668380   0.169968  -3.855218  -0.779718
   57  H  3  X    0.029422   0.115879  -0.000857  -0.007496   0.007366
   58  H  3  Y   -0.595869   0.173506   0.246765   0.282416   0.218983
   59  H  3  Z   -0.371065   0.107036   0.066744   0.160385  -0.140800
   60  H  4  S    0.027855  -0.004678  -0.002820  -0.057583   0.098430
   61  H  4  S   -1.028138   0.317912  -1.682915  -3.136174   0.725070
   62  H  4  X   -0.000277   0.000428  -0.000406  -0.000787  -0.000737
   63  H  4  Y   -0.010493   0.003210  -0.009521  -0.022772  -0.023979
   64  H  4  Z   -0.008694   0.002679  -0.001024  -0.011054   0.005818
   65  H  4  S   -3.774295   1.043220  -0.781770  -5.120287  -1.962475
   66  H  4  X   -0.032003  -0.084160  -0.019099  -0.028639  -0.004470
   67  H  4  Y   -0.317240   0.094415  -0.440868  -0.568800  -0.471566
   68  H  4  Z   -0.293628   0.083671  -0.208651  -0.572488   0.402375
   69  H  5  S   -0.018808   0.004394  -0.017516  -0.022123   0.225670
   70  H  5  S   -0.020216   0.030033  -2.724947   1.103172   2.829412
   71  H  5  X   -0.000574  -0.001431   0.000720  -0.000440   0.000342
   72  H  5  Y   -0.007828   0.002208   0.026102  -0.016418   0.011363
   73  H  5  Z    0.000692  -0.000074  -0.013611   0.014690  -0.000217
   74  H  5  S   -1.185869   0.338432  -4.239524   6.573469   2.817308
   75  H  5  X   -0.032918  -0.117313   0.014787  -0.009948   0.006478
   76  H  5  Y   -0.008015   0.000200   0.668539  -0.421661   0.138597
   77  H  5  Z    0.103383  -0.022909  -0.418755   0.164188   0.435674

                     21         22         23         24         25
                    0.1684     0.1955     0.2194     0.2528     0.2855
                     A          A          A          A          A   
    1  C  1  S    0.049244   0.018607   0.000208  -0.005124  -0.009613
    2  C  1  S    0.158707   0.011737   0.001246  -0.029898  -0.136926
    3  C  1  S   -2.123641  -0.552302   0.009153   0.737381   0.381736
    4  C  1  X   -0.005973   0.007928   0.001266  -0.004943   0.003149
    5  C  1  Y   -0.065323   0.125077  -0.013291  -0.199957   0.009054
    6  C  1  Z   -0.062969  -0.019136   0.001389   0.075495  -0.014869
    7  C  1  X   -0.005126   0.014416  -0.070632  -0.004139   0.010804
    8  C  1  Y   -0.094441   0.602860  -0.014043  -0.223985   0.077578
    9  C  1  Z   -1.008060   1.213812   0.034842   0.758344   2.385682
   10  C  1 XX    0.014218  -0.024643   0.003214  -0.015376  -0.023557
   11  C  1 YY   -0.005740   0.025517  -0.003417   0.017872  -0.073660
   12  C  1 ZZ   -0.008478  -0.000874   0.000203  -0.002496   0.097216
   13  C  1 XY   -0.002445   0.003923   0.047113  -0.001251  -0.001177
   14  C  1 XZ   -0.000549   0.000587  -0.002671  -0.001263   0.000808
   15  C  1 YZ   -0.037547   0.037602  -0.005786  -0.031482  -0.013427
   16  C  1  S  -18.290264 -20.647777  -0.222301 -10.483417   2.267277
   17  C  1  X   -0.032477   0.064416   0.012991  -0.047600   0.002088
   18  C  1  Y   -0.148401   2.483751  -0.136736  -1.716741  -0.965962
   19  C  1  Z   -6.215984  -5.843395  -0.085601  -2.329162   4.008917
   20  C  1 XX    0.179968   0.118741  -0.017121   0.084653  -0.274061
   21  C  1 YY    0.140585  -0.554980   0.014702  -0.216247   0.135194
   22  C  1 ZZ   -0.320554   0.436239   0.002419   0.131594   0.138867
   23  C  1 XY    0.000557  -0.027863  -0.175419   0.006138   0.000970
   24  C  1 XZ    0.010493  -0.014663  -0.015012   0.028009  -0.009124
   25  C  1 YZ    0.443806  -0.203506   0.072282   0.855052   0.212445
   26  C  2  S   -0.045748  -0.017409  -0.000158  -0.004371   0.034068
   27  C  2  S   -0.198119  -0.048235  -0.002060  -0.001259   0.162424
   28  C  2  S    1.617753  -0.503793   0.018028  -0.372643  -0.615657
   29  C  2  X    0.004918  -0.007334  -0.040016   0.004085   0.003085
   30  C  2  Y   -0.038929   0.062395   0.009478   0.288903  -0.039175
   31  C  2  Z   -0.108983  -0.007342  -0.003936   0.022269  -0.251489
   32  C  2  X    0.000347  -0.009535  -0.233341  -0.007741   0.022230
   33  C  2  Y   -0.141162   0.800257   0.001670   0.390554   0.425642
   34  C  2  Z   -1.202008   1.118255   0.021456   0.791450   1.545642
   35  C  2 XX   -0.016333   0.012198  -0.000291   0.014525   0.029030
   36  C  2 YY    0.011674   0.003266  -0.000370  -0.021609   0.021534
   37  C  2 ZZ    0.004659  -0.015463   0.000660   0.007084  -0.050564
   38  C  2 XY   -0.000814   0.001394   0.022152  -0.001029  -0.001401
   39  C  2 XZ    0.000559  -0.000252   0.009192   0.000154  -0.000855
   40  C  2 YZ    0.017671  -0.052580   0.004025   0.010113  -0.007043
   41  C  2  S   18.536793  20.792138   0.233866  11.129552  -3.968360
   42  C  2  X    0.017156  -0.017821  -0.167904   0.029532   0.005960
   43  C  2  Y   -1.670708  -1.007747   0.017348   1.580556   1.298239
   44  C  2  Z   -6.125714  -5.207880  -0.129229  -2.464643   1.576601
   45  C  2 XX   -0.185228  -0.160909   0.022086  -0.006744   0.187164
   46  C  2 YY   -0.163804   0.201323  -0.001319   0.202736   0.182794
   47  C  2 ZZ    0.349032  -0.040414  -0.020767  -0.195992  -0.369958
   48  C  2 XY   -0.009179   0.018381   0.253762  -0.013946   0.006887
   49  C  2 XZ    0.008471  -0.014445  -0.111167   0.018939   0.001451
   50  C  2 YZ    0.335887   0.271739   0.032572   0.611442   0.326341
   51  H  3  S    0.176132  -0.179722   0.010598  -0.092073  -0.023155
   52  H  3  S   -0.289145  -3.002629  -0.091426  -2.925425  -2.135219
   53  H  3  X    0.000322  -0.000600  -0.004053   0.000384  -0.000272
   54  H  3  Y    0.013062  -0.002210   0.000846  -0.003307   0.002624
   55  H  3  Z    0.005168  -0.007259   0.000320  -0.004498  -0.011945
   56  H  3  S    3.132272   1.705378   0.107055   0.199142  -2.677390
   57  H  3  X   -0.011589   0.015235   0.526781  -0.029012  -0.046231
   58  H  3  Y    0.600515   0.624976   0.010071  -0.233165   0.705507
   59  H  3  Z    0.159985  -0.199804   0.060080   0.210953   0.248612
   60  H  4  S   -0.159562   0.217164  -0.013784   0.013875   0.018440
   61  H  4  S   -0.592234   3.605888  -0.129973  -0.742791   1.168032
   62  H  4  X    0.000516   0.000312  -0.000602   0.000422   0.000382
   63  H  4  Y    0.019997   0.001594   0.001097  -0.000026   0.015529
   64  H  4  Z    0.021969  -0.001709   0.002125   0.024579  -0.008839
   65  H  4  S   -2.006254   0.916754  -0.126625  -0.456303   0.915149
   66  H  4  X    0.018714  -0.006398  -0.729423   0.039533  -0.014197
   67  H  4  Y    0.140256   0.191720   0.018805  -0.336892   0.590040
   68  H  4  Z    0.220758   0.131380   0.050000   0.426728  -0.847672
   69  H  5  S    0.028075  -0.055098   0.010148   0.155883   0.047444
   70  H  5  S    1.535259   1.055464   0.159862   2.751902   1.906005
   71  H  5  X   -0.000699   0.000467   0.003127   0.000277  -0.000238
   72  H  5  Y   -0.015853   0.002036   0.000303   0.016439  -0.012649
   73  H  5  Z   -0.007755   0.016312  -0.002513  -0.017720  -0.017484
   74  H  5  S   -1.443045  -3.072453   0.024233  -0.032362   2.697166
   75  H  5  X   -0.035806   0.036356   0.830400  -0.041177  -0.022818
   76  H  5  Y   -0.472896  -0.045602  -0.059402  -0.029019  -0.828087
   77  H  5  Z   -0.033386   0.603146  -0.048665  -0.514639  -0.872751

                     26         27         28         29         30
                    0.3082     0.3153     0.3553     0.3771     0.4044
                     A          A          A          A          A   
    1  C  1  S   -0.005642  -0.030326  -0.000685  -0.019837   0.040271
    2  C  1  S   -0.024660  -0.127848  -0.000833  -0.059085  -0.016940
    3  C  1  S    0.241492   1.442317   0.025400   1.762709  -2.117512
    4  C  1  X   -0.058685   0.009479  -0.246225   0.007804  -0.000738
    5  C  1  Y   -0.025294  -0.136701   0.010341   0.279285   0.055038
    6  C  1  Z   -0.048430  -0.249140  -0.000642  -0.075836  -0.000425
    7  C  1  X   -0.334509   0.058898  -0.970177   0.108278  -0.013266
    8  C  1  Y    0.073332   0.211426   0.044827   3.088504   0.315364
    9  C  1  Z    0.487020   2.288814  -0.035019   1.739733  -1.814323
   10  C  1 XX   -0.007034  -0.026425  -0.000188  -0.013563   0.018352
   11  C  1 YY   -0.000803   0.001109   0.000144   0.006730   0.008726
   12  C  1 ZZ    0.007838   0.025316   0.000044   0.006834  -0.027078
   13  C  1 XY   -0.034027   0.007066   0.011095  -0.000530  -0.000960
   14  C  1 XZ   -0.018171   0.002696  -0.029582  -0.001412  -0.000831
   15  C  1 YZ   -0.003358  -0.022801   0.000015  -0.050307  -0.010100
   16  C  1  S    1.353343   4.964396   0.097091   0.107796  -6.239473
   17  C  1  X   -0.120609  -0.065787  -1.111720   0.164337   0.018267
   18  C  1  Y   -0.722370  -3.534166   0.065958   4.844117   1.597475
   19  C  1  Z    0.465320   1.427411   0.017615  -0.058763  -1.788445
   20  C  1 XX   -0.007791  -0.084041  -0.004958  -0.080803   0.531614
   21  C  1 YY   -0.128566  -0.549842   0.003944  -0.334401   0.608462
   22  C  1 ZZ    0.136356   0.633883   0.001014   0.415204  -1.140075
   23  C  1 XY    0.504198  -0.112155  -0.226110  -0.010065   0.028755
   24  C  1 XZ    0.012057   0.013701   0.075981   0.019241   0.009546
   25  C  1 YZ    0.180297   1.029519   0.015254   0.298087   0.266338
   26  C  2  S    0.006562   0.027332  -0.000221   0.010202   0.032449
   27  C  2  S    0.026258   0.107658   0.000195   0.027995  -0.012330
   28  C  2  S   -0.348408  -1.522439   0.006269  -0.560117  -0.285243
   29  C  2  X   -0.109619   0.025019   0.044604   0.000164  -0.004596
   30  C  2  Y    0.007655   0.033297  -0.003287   0.034702  -0.202575
   31  C  2  Z   -0.004888   0.017569  -0.001326  -0.018753   0.035414
   32  C  2  X   -0.634382   0.109450   0.447399  -0.037855  -0.010617
   33  C  2  Y   -0.076124  -0.462283  -0.039815   0.196212  -2.269406
   34  C  2  Z    0.589570   2.974053  -0.025366   2.009955  -2.944801
   35  C  2 XX    0.006319   0.027921  -0.000034   0.007098   0.005672
   36  C  2 YY    0.009980   0.050901  -0.000140   0.011171  -0.021432
   37  C  2 ZZ   -0.016299  -0.078822   0.000175  -0.018269   0.015760
   38  C  2 XY    0.034965  -0.006139  -0.010276   0.000113   0.000592
   39  C  2 XZ    0.024140  -0.004054   0.015217   0.000053   0.000180
   40  C  2 YZ   -0.004640  -0.020880  -0.000878   0.006377  -0.007152
   41  C  2  S   -1.089787  -3.968754  -0.076671   0.616750   0.693870
   42  C  2  X   -0.448258   0.108438   0.536040  -0.043816  -0.012711
   43  C  2  Y    0.556979   2.589715  -0.031439  -0.627630  -2.756214
   44  C  2  Z    0.831227   3.810905   0.015116   0.596587  -1.888212
   45  C  2 XX    0.054762   0.357261  -0.010115   0.139665   0.899976
   46  C  2 YY    0.077688   0.384968   0.002848   0.778060  -0.963693
   47  C  2 ZZ   -0.132450  -0.742230   0.007267  -0.917725   0.063717
   48  C  2 XY   -0.357114   0.067915  -0.179419   0.006015  -0.014982
   49  C  2 XZ   -0.152246   0.038272   0.326254   0.021122   0.006269
   50  C  2 YZ    0.209126   1.134265   0.005580   0.716762   0.125783
   51  H  3  S   -0.008636  -0.018256   0.000128   0.055492  -0.034716
   52  H  3  S   -0.583645  -2.961949   0.044360  -3.287129   6.794096
   53  H  3  X    0.004876  -0.000618   0.000135  -0.000014   0.000014
   54  H  3  Y   -0.000392  -0.000503  -0.000148   0.000400   0.001981
   55  H  3  Z   -0.006847  -0.033974  -0.000149  -0.009472   0.008886
   56  H  3  S   -0.663628  -2.826768  -0.005601  -0.560541   3.006642
   57  H  3  X    1.492327  -0.287220  -0.387039  -0.008157   0.032235
   58  H  3  Y    0.195547   1.034106  -0.005306   0.479001  -1.441673
   59  H  3  Z   -0.202464  -1.047703  -0.005984   0.742973  -0.876268
   60  H  4  S   -0.015703  -0.049063   0.000366   0.026354   0.038805
   61  H  4  S   -0.053806  -0.532417  -0.055587   4.325395   0.175432
   62  H  4  X    0.004936  -0.000649  -0.011920   0.000228  -0.000413
   63  H  4  Y    0.000263  -0.001011   0.000330   0.005017   0.003924
   64  H  4  Z    0.000350   0.003882   0.000274   0.002755   0.000716
   65  H  4  S   -0.249447  -1.290259   0.014995   4.142901   0.218510
   66  H  4  X    1.269887  -0.244703   0.718290   0.034896   0.044068
   67  H  4  Y    0.042280   0.149780  -0.063521  -0.096091  -0.294862
   68  H  4  Z    0.124367   0.768627   0.000389   1.551626  -0.427264
   69  H  5  S    0.004602   0.044751   0.000393   0.009606   0.022209
   70  H  5  S    0.572658   3.280984  -0.029509  -2.690472   0.487657
   71  H  5  X   -0.006315   0.001409  -0.010020   0.000292   0.000061
   72  H  5  Y    0.000918   0.008327   0.000746   0.014384   0.000681
   73  H  5  Z   -0.006153  -0.032172  -0.000144  -0.018112   0.001658
   74  H  5  S    0.788188   3.578385  -0.020799  -3.865003  -0.971437
   75  H  5  X   -0.455626   0.079771   1.618933  -0.043533  -0.023743
   76  H  5  Y   -0.092973  -0.543214  -0.045689  -0.392697  -0.211875
   77  H  5  Z    0.054415   0.404074  -0.015822  -0.902815  -0.203860

                     31         32         33         34         35
                    0.4383     0.4438     0.4484     0.4763     0.4827
                     A          A          A          A          A   
    1  C  1  S    0.064871   0.014141  -0.000776   0.022689   0.009635
    2  C  1  S    0.031693  -0.047567  -0.001065  -0.026817  -0.017296
    3  C  1  S   -4.212739   0.717065   0.231255  -2.236994  -0.753593
    4  C  1  X    0.008998  -0.034357   0.247359   0.011479  -0.046640
    5  C  1  Y    0.027485  -0.063698  -0.009647  -0.130875   0.040205
    6  C  1  Z    0.084504   0.002284   0.011073  -0.015482  -0.014343
    7  C  1  X    0.060886  -0.143600   1.818848  -0.005851  -0.333890
    8  C  1  Y   -0.605654   1.191252   0.388880  -3.676722  -0.623779
    9  C  1  Z    5.920364   3.751800   0.330881  -0.897690  -0.854513
   10  C  1 XX    0.017937  -0.008207   0.000072  -0.012804   0.000435
   11  C  1 YY   -0.026585  -0.005345  -0.001209   0.013071   0.003430
   12  C  1 ZZ    0.008649   0.013552   0.001137  -0.000266  -0.003865
   13  C  1 XY   -0.001167  -0.000787   0.001918   0.000413  -0.004533
   14  C  1 XZ    0.000300   0.000333  -0.014065  -0.002932  -0.030421
   15  C  1 YZ    0.019647   0.011698  -0.002103  -0.010587   0.012018
   16  C  1  S   -6.864183  -3.990460  -0.910392   3.659733   0.223475
   17  C  1  X    0.018954  -0.043654   1.147322   0.041873   0.145985
   18  C  1  Y   -0.593348   1.620119   0.293530  -0.814571  -0.350912
   19  C  1  Z    1.098491   0.258752  -0.112140   0.786862   0.015109
   20  C  1 XX    0.578236   0.275700   0.034662  -0.457415   0.016204
   21  C  1 YY   -1.937804  -0.754566  -0.042272   0.516525   0.389531
   22  C  1 ZZ    1.359568   0.478865   0.007610  -0.059109  -0.405734
   23  C  1 XY   -0.101187  -0.027987  -0.262582   0.022531  -0.299167
   24  C  1 XZ   -0.003963   0.015818  -0.121385   0.078388   1.424312
   25  C  1 YZ    0.633879  -2.625767  -0.272077  -0.103902   0.358149
   26  C  2  S    0.061982   0.028705  -0.001398   0.052796  -0.014233
   27  C  2  S   -0.000813  -0.026033  -0.007892   0.015030   0.006329
   28  C  2  S   -6.413805  -2.510247   0.036027  -4.172515   1.839270
   29  C  2  X    0.003199   0.013687  -0.255310  -0.027304  -0.250134
   30  C  2  Y    0.126152   0.065690   0.010007  -0.135312   0.011583
   31  C  2  Z    0.031568  -0.081325   0.005975  -0.178941  -0.002644
   32  C  2  X   -0.004226   0.034136  -0.689011  -0.081491  -1.521477
   33  C  2  Y   -0.741329   3.155135   0.356982  -1.473284   0.062051
   34  C  2  Z    3.088879   2.725113   0.355946  -2.449243  -0.778400
   35  C  2 XX    0.033177  -0.000867  -0.000986  -0.010784  -0.001932
   36  C  2 YY   -0.013021   0.026842   0.002980   0.016295  -0.003722
   37  C  2 ZZ   -0.020156  -0.025976  -0.001994  -0.005510   0.005654
   38  C  2 XY   -0.000601  -0.000568   0.004490   0.000581   0.004183
   39  C  2 XZ   -0.000415   0.002703  -0.014975  -0.001752   0.001541
   40  C  2 YZ   -0.021185   0.054202   0.006807   0.012614  -0.008806
   41  C  2  S   -0.677112   1.287698   0.770953  -4.720767   0.015999
   42  C  2  X    0.000555   0.064107  -1.181842  -0.079494  -0.524464
   43  C  2  Y    0.506733   0.033881  -0.019186  -0.232371   0.140620
   44  C  2  Z   -0.231654  -0.142559  -0.113276   0.150222   0.029879
   45  C  2 XX    0.037400   0.211674   0.008879  -0.145678   0.002210
   46  C  2 YY    0.494310   1.358954   0.087935   0.100665   0.031016
   47  C  2 ZZ   -0.531710  -1.570628  -0.096814   0.045014  -0.033226
   48  C  2 XY    0.015292   0.001992  -0.659404  -0.051311  -0.976671
   49  C  2 XZ    0.027291  -0.146542   1.052048   0.080601  -0.300007
   50  C  2 YZ   -0.350439  -0.842342  -0.009457  -0.390417  -0.140965
   51  H  3  S   -0.094173   0.184452   0.023175   0.124616  -0.048576
   52  H  3  S    1.166628  -3.052808  -0.649360   6.478676  -0.365015
   53  H  3  X   -0.000448   0.000439  -0.017225  -0.001344  -0.021926
   54  H  3  Y   -0.018955   0.013043   0.000914   0.029390  -0.001186
   55  H  3  Z   -0.020881   0.024895   0.003555   0.002753  -0.006271
   56  H  3  S   -0.046816  -0.192386  -0.030934   0.892062  -0.128690
   57  H  3  X   -0.015166   0.003236   0.750018   0.056569   1.393387
   58  H  3  Y   -0.388732  -0.231988   0.150274  -3.247554   0.158389
   59  H  3  Z   -0.115894   1.429131   0.097530  -0.931057   0.459632
   60  H  4  S   -0.043342  -0.081978  -0.017074   0.023200   0.074597
   61  H  4  S    6.138563   9.332814   1.295515  -5.913325  -1.609536
   62  H  4  X    0.000390  -0.001671   0.016782   0.001535   0.004388
   63  H  4  Y    0.007528  -0.017925  -0.002434   0.003733  -0.002685
   64  H  4  Z   -0.005525  -0.011809   0.001027  -0.001798  -0.009610
   65  H  4  S    1.416280   1.896830   0.267400  -0.899496  -0.153180
   66  H  4  X    0.014849   0.266513  -1.270202  -0.121428   0.146238
   67  H  4  Y    1.096193   2.986590   0.404035  -1.612994  -0.240619
   68  H  4  Z    1.845400   0.127247   0.025019  -1.227458  -0.121542
   69  H  5  S   -0.177819   0.089823   0.014025   0.108451  -0.010917
   70  H  5  S    9.107859  -2.488973  -0.723198   4.701372   0.783892
   71  H  5  X    0.000246  -0.002542   0.007921   0.000686  -0.013367
   72  H  5  Y   -0.006805  -0.005580  -0.000784   0.022400  -0.000555
   73  H  5  Z    0.007026  -0.003878  -0.001824   0.003694   0.003824
   74  H  5  S    1.537777  -0.497986  -0.183482   0.821070   0.211972
   75  H  5  X   -0.058891   0.155228  -0.423065  -0.042806   1.126733
   76  H  5  Y   -2.124297   1.456580   0.319754  -2.557142  -0.362413
   77  H  5  Z    1.119651   0.985748  -0.026602   1.417297  -0.077941

                     36         37         38         39         40
                    0.4872     0.4935     0.5048     0.5566     0.5629
                     A          A          A          A          A   
    1  C  1  S    0.009403   0.104028  -0.024832   0.078585  -0.006919
    2  C  1  S   -0.105451  -0.004317  -0.026709   0.021998   0.003958
    3  C  1  S   -1.440917  -8.280032   4.289340  -8.378559   0.621817
    4  C  1  X    0.025827   0.003563  -0.004514  -0.004062   0.071450
    5  C  1  Y    0.173403   0.005893  -0.109828  -0.062885   0.003988
    6  C  1  Z   -0.247849   0.323915  -0.083160  -0.146395   0.015289
    7  C  1  X    0.186022   0.014901  -0.145754   0.048481   1.361097
    8  C  1  Y   -0.362289  -0.844654  -7.067798  -0.212224   0.181865
    9  C  1  Z   -2.689427  -2.660274   1.363640  -1.630213   0.620918
   10  C  1 XX   -0.010655   0.008716  -0.005861   0.026751  -0.000254
   11  C  1 YY    0.012047   0.031799  -0.008857  -0.008089  -0.001051
   12  C  1 ZZ   -0.001392  -0.040515   0.014717  -0.018662   0.001304
   13  C  1 XY    0.002660   0.001616   0.000190  -0.001378   0.002764
   14  C  1 XZ    0.005708   0.003210   0.001142  -0.004989  -0.055574
   15  C  1 YZ    0.055505  -0.003022   0.013055  -0.027530   0.001531
   16  C  1  S    4.473923  -4.968367  -4.839904 -14.689050   1.339694
   17  C  1  X    0.002697  -0.034044  -0.050345   0.018659   0.221784
   18  C  1  Y   -0.134092  -0.555631  -1.882986   0.915156  -0.109154
   19  C  1  Z    0.334927  -0.199984  -0.977364  -4.861344   0.448333
   20  C  1 XX   -0.296289   0.295936   0.577095  -0.037911   0.022479
   21  C  1 YY    0.406630   2.645445  -0.652549  -1.822702  -0.104281
   22  C  1 ZZ   -0.110341  -2.941380   0.075454   1.860613   0.081802
   23  C  1 XY    0.087072   0.135040   0.063821  -0.014859   1.606652
   24  C  1 XZ   -0.205807  -0.159551  -0.065925   0.158754   2.175466
   25  C  1 YZ    0.785765   0.406838   0.264132   0.170055  -0.069319
   26  C  2  S   -0.004405  -0.087835  -0.032079  -0.051304   0.006970
   27  C  2  S    0.093098  -0.080761  -0.012373   0.135219  -0.006956
   28  C  2  S    1.992013  10.045283   2.869053   2.949418  -0.691294
   29  C  2  X    0.027025   0.020521  -0.001163  -0.025609  -0.317105
   30  C  2  Y    0.070620  -0.020345  -0.017468   0.004359   0.005231
   31  C  2  Z   -0.198461   0.176587   0.001807  -0.085181   0.016287
   32  C  2  X    0.196633   0.164481   0.102120  -0.107629  -1.430066
   33  C  2  Y   -0.589478   1.048810   3.287657   0.645009   0.052545
   34  C  2  Z   -2.924183  -3.074516   2.518377  -1.487357   0.574775
   35  C  2 XX    0.013270  -0.049623   0.002306   0.011167   0.001721
   36  C  2 YY   -0.014499   0.004173   0.007143  -0.027316  -0.000098
   37  C  2 ZZ    0.001228   0.045450  -0.009448   0.016150  -0.001623
   38  C  2 XY    0.000820   0.001074  -0.000122   0.001077   0.027297
   39  C  2 XZ   -0.002142  -0.000461  -0.000630  -0.001148  -0.033095
   40  C  2 YZ   -0.031541   0.006576   0.010332  -0.013692   0.000440
   41  C  2  S   -4.309174   5.237300   5.836658  15.666981  -1.397593
   42  C  2  X    0.053330   0.051268   0.015140  -0.030572  -0.383835
   43  C  2  Y   -0.236562   0.442928   0.972774  -1.183356   0.142866
   44  C  2  Z    0.366010  -0.706707  -0.707487  -3.814965   0.410938
   45  C  2 XX    0.249345  -0.328801  -0.027696  -0.377010   0.043441
   46  C  2 YY    0.320409  -0.544214   1.464753  -0.923840   0.072758
   47  C  2 ZZ   -0.569753   0.873015  -1.437057   1.300850  -0.116199
   48  C  2 XY    0.132162   0.081012   0.071786  -0.019673   0.056011
   49  C  2 XZ    0.136678   0.030985   0.057224   0.091768   1.891226
   50  C  2 YZ   -0.952434   0.240479  -0.356721   1.023008  -0.034398
   51  H  3  S   -0.180773  -0.029739   0.047665  -0.152957   0.005302
   52  H  3  S    2.458315  -3.808820  -7.382384  -3.024245  -0.082708
   53  H  3  X    0.003167   0.003035   0.001287  -0.001534  -0.001656
[...]
 II,JST,KST,LST =  1  1  1  1 NREC =         1 INTLOC =    1
 II,JST,KST,LST =  2  1  1  1 NREC =         1 INTLOC =    1
 II,JST,KST,LST =  3  1  1  1 NREC =         1 INTLOC =    1
 II,JST,KST,LST =  4  1  1  1 NREC =         1 INTLOC =    1
 II,JST,KST,LST =  5  1  1  1 NREC =         1 INTLOC =    1
 II,JST,KST,LST =  6  1  1  1 NREC =         1 INTLOC =    1
 II,JST,KST,LST =  7  1  1  1 NREC =         1 INTLOC =    4
 II,JST,KST,LST =  8  1  1  1 NREC =         1 INTLOC =   49
 II,JST,KST,LST =  9  1  1  1 NREC =         1 INTLOC =  436
 II,JST,KST,LST = 10  1  1  1 NREC =         1 INTLOC =  436
 II,JST,KST,LST = 11  1  1  1 NREC =         1 INTLOC =  436
 II,JST,KST,LST = 12  1  1  1 NREC =         1 INTLOC =  816
 II,JST,KST,LST = 13  1  1  1 NREC =         1 INTLOC =  816
 II,JST,KST,LST = 14  1  1  1 NREC =         1 INTLOC =  816
 II,JST,KST,LST = 15  1  1  1 NREC =         1 INTLOC =  816
 II,JST,KST,LST = 16  1  1  1 NREC =         1 INTLOC = 2565
 II,JST,KST,LST = 17  1  1  1 NREC =         1 INTLOC = 2565
 II,JST,KST,LST = 18  1  1  1 NREC =         1 INTLOC = 7456
 II,JST,KST,LST = 19  1  1  1 NREC =         1 INTLOC = 7456
 II,JST,KST,LST = 20  1  1  1 NREC =         2 INTLOC = 1931
 II,JST,KST,LST = 21  1  1  1 NREC =         2 INTLOC = 1931
 II,JST,KST,LST = 22  1  1  1 NREC =         2 INTLOC = 1931
 II,JST,KST,LST = 23  1  1  1 NREC =         2 INTLOC = 1931
 II,JST,KST,LST = 24  1  1  1 NREC =         6 INTLOC = 2483
 II,JST,KST,LST = 25  1  1  1 NREC =         7 INTLOC = 2649
 II,JST,KST,LST = 26  1  1  1 NREC =         7 INTLOC =11473
 II,JST,KST,LST = 27  1  1  1 NREC =         9 INTLOC = 1414
 II,JST,KST,LST = 28  1  1  1 NREC =         9 INTLOC = 1414
 II,JST,KST,LST = 29  1  1  1 NREC =        10 INTLOC = 2638
 II,JST,KST,LST = 30  1  1  1 NREC =        12 INTLOC = 2160
 II,JST,KST,LST = 31  1  1  1 NREC =        12 INTLOC = 2160
 II,JST,KST,LST = 32  1  1  1 NREC =        15 INTLOC = 7514
 II,JST,KST,LST = 33  1  1  1 NREC =        15 INTLOC = 7514
 II,JST,KST,LST = 34  1  1  1 NREC =        19 INTLOC = 8079
 II,JST,KST,LST = 35  1  1  1 NREC =        20 INTLOC = 7722
 II,JST,KST,LST = 36  1  1  1 NREC =        21 INTLOC = 4181
 II,JST,KST,LST = 37  1  1  1 NREC =        22 INTLOC = 9284
 II,JST,KST,LST = 38  1  1  1 NREC =        25 INTLOC = 1430
 II,JST,KST,LST = 39  1  1  1 NREC =        28 INTLOC =10271
 II,JST,KST,LST = 40  1  1  1 NREC =        32 INTLOC =12275
 II,JST,KST,LST = 41  1  1  1 NREC =        35 INTLOC = 8115
 II,JST,KST,LST = 42  1  1  1 NREC =        42 INTLOC = 3596
 II,JST,KST,LST = 43  1  1  1 NREC =        61 INTLOC = 9974
 II,JST,KST,LST = 44  1  1  1 NREC =        61 INTLOC = 9974
 II,JST,KST,LST = 45  1  1  1 NREC =        63 INTLOC =11657
 II,JST,KST,LST = 46  1  1  1 NREC =        66 INTLOC = 3552
 II,JST,KST,LST = 47  1  1  1 NREC =        70 INTLOC = 7849
 II,JST,KST,LST = 48  1  1  1 NREC =        83 INTLOC = 8557
 II,JST,KST,LST = 49  1  1  1 NREC =        95 INTLOC = 4544
 II,JST,KST,LST = 50  1  1  1 NREC =       101 INTLOC = 3359
 II,JST,KST,LST = 51  1  1  1 NREC =       122 INTLOC = 8057
 II,JST,KST,LST = 52  1  1  1 NREC =       138 INTLOC =10819
 II,JST,KST,LST = 53  1  1  1 NREC =       145 INTLOC =  121
 II,JST,KST,LST = 54  1  1  1 NREC =       148 INTLOC = 7603
 II,JST,KST,LST = 55  1  1  1 NREC =       158 INTLOC = 3041
 II,JST,KST,LST = 56  1  1  1 NREC =       165 INTLOC = 4759
 II,JST,KST,LST = 57  1  1  1 NREC =       177 INTLOC = 4303
 II,JST,KST,LST = 58  1  1  1 NREC =       179 INTLOC =  336
 II,JST,KST,LST = 59  1  1  1 NREC =       187 INTLOC =  691
 II,JST,KST,LST = 60  1  1  1 NREC =       199 INTLOC =13882
 II,JST,KST,LST = 61  1  1  1 NREC =       204 INTLOC = 4230
 II,JST,KST,LST = 62  1  1  1 NREC =       228 INTLOC = 4455
 II,JST,KST,LST = 63  1  1  1 NREC =       230 INTLOC =  549
 II,JST,KST,LST = 64  1  1  1 NREC =       244 INTLOC = 7641
 II,JST,KST,LST = 65  1  1  1 NREC =       261 INTLOC = 2504
 II,JST,KST,LST = 66  1  1  1 NREC =       272 INTLOC = 6438
 SCHWARZ INEQUALITY TEST SKIPPED       32843 INTEGRAL BLOCKS.
 TOTAL NUMBER OF NONZERO TWO-ELECTRON INTEGRALS =            67042255
       4478 INTEGRAL RECORDS WERE STORED ON DISK FILE  8.
  ...... END OF TWO-ELECTRON INTEGRALS .....
 CPU     0: STEP CPU TIME=     0.26 TOTAL CPU TIME=         23.9 (      0.4 MIN)
 TOTAL WALL CLOCK TIME=         24.3 SECONDS, CPU UTILIZATION IS    98.41%

          ---------------------------------------------
          MONOMER ELECTROSTATIC INTERACTION (OWN BASIS)
          ---------------------------------------------

          -------------
          GUESS OPTIONS
          -------------
          GUESS =MOSAVED           NORB  =       0          NORDER=       0
          MIX   =       F          PRTMO =       F          PUNMO =       F
          TOLZ  = 1.0E-08          TOLE  = 1.0E-05
          SYMDEN=       F          PURIFY=       F

 INITIAL GUESS ORBITALS GENERATED BY MOSAVED  ROUTINE.

 STATISTICS FOR GENERATION OF SYMMETRY ORBITAL -Q- MATRIX
 NUMBER OF CARTESIAN ATOMIC ORBITALS=        154
 NUMBER OF SPHERICAL CONTAMINANTS DROPPED=     8
 NUMBER OF LINEARLY DEPENDENT MOS DROPPED=     0
 TOTAL NUMBER OF MOS IN VARIATION SPACE=     146
 ...... END OF INITIAL ORBITAL SELECTION ......
 CPU     0: STEP CPU TIME=     0.01 TOTAL CPU TIME=         23.9 (      0.4 MIN)
 TOTAL WALL CLOCK TIME=         24.3 SECONDS, CPU UTILIZATION IS    98.41%

          ---------------------------
                  UHF SCF CALCULATION
          ---------------------------

 FINAL UHF ENERGY IS     -155.3033822547 AFTER   1 ITERATIONS
 ...... END OF UHF CALCULATION ......
 CPU     0: STEP CPU TIME=     0.08 TOTAL CPU TIME=         24.0 (      0.4 MIN)
 TOTAL WALL CLOCK TIME=         24.4 SECONDS, CPU UTILIZATION IS    98.35%

          -------------
          GUESS OPTIONS
          -------------
          GUESS =MOSAVED           NORB  =       0          NORDER=       0
          MIX   =       F          PRTMO =       F          PUNMO =       F
          TOLZ  = 1.0E-08          TOLE  = 1.0E-05
          SYMDEN=       F          PURIFY=       F

 INITIAL GUESS ORBITALS GENERATED BY MOSAVED  ROUTINE.

 STATISTICS FOR GENERATION OF SYMMETRY ORBITAL -Q- MATRIX
 NUMBER OF CARTESIAN ATOMIC ORBITALS=        154
 NUMBER OF SPHERICAL CONTAMINANTS DROPPED=     8
 NUMBER OF LINEARLY DEPENDENT MOS DROPPED=     0
 TOTAL NUMBER OF MOS IN VARIATION SPACE=     146
 ...... END OF INITIAL ORBITAL SELECTION ......
 CPU     0: STEP CPU TIME=     0.01 TOTAL CPU TIME=         24.0 (      0.4 MIN)
 TOTAL WALL CLOCK TIME=         24.4 SECONDS, CPU UTILIZATION IS    98.35%

          ---------------------------
                  UHF SCF CALCULATION
          ---------------------------

 DIRECT SCF CALCULATION, SCHWRZ=T   FDIFF=T
 SCHWARZ INEQUALITY OVERHEAD:     11935 INTEGRALS, T=        0.00

 FINAL UHF ENERGY IS     -332.2032095896 AFTER   1 ITERATIONS
 ...... END OF UHF CALCULATION ......
 CPU     0: STEP CPU TIME=     0.26 TOTAL CPU TIME=         24.3 (      0.4 MIN)
 TOTAL WALL CLOCK TIME=         24.7 SECONDS, CPU UTILIZATION IS    98.34%

 XEDA STEP ENERGY SUMMATION
 ETOT =       -155.30338225     ENUC =        103.47699021
 EEXCH=        -22.94754398

          --------------------------------------------------
          MONOMER EXCHANGE-REPULSION INTERACTION (OWN BASIS)
          --------------------------------------------------

          -------------
          GUESS OPTIONS
          -------------
          GUESS =MOSAVED           NORB  =       0          NORDER=       0
          MIX   =       F          PRTMO =       F          PUNMO =       F
          TOLZ  = 1.0E-08          TOLE  = 1.0E-05
          SYMDEN=       F          PURIFY=       F

 INITIAL GUESS ORBITALS GENERATED BY MOSAVED  ROUTINE.

 STATISTICS FOR GENERATION OF SYMMETRY ORBITAL -Q- MATRIX
 NUMBER OF CARTESIAN ATOMIC ORBITALS=        154
 NUMBER OF SPHERICAL CONTAMINANTS DROPPED=     8
 NUMBER OF LINEARLY DEPENDENT MOS DROPPED=     0
 TOTAL NUMBER OF MOS IN VARIATION SPACE=     146
 ...... END OF INITIAL ORBITAL SELECTION ......
 CPU     0: STEP CPU TIME=     0.01 TOTAL CPU TIME=         24.3 (      0.4 MIN)
 TOTAL WALL CLOCK TIME=         24.7 SECONDS, CPU UTILIZATION IS    98.34%

          ---------------------------
                  UHF SCF CALCULATION
          ---------------------------

 FINAL UHF ENERGY IS     -154.6249692172 AFTER   1 ITERATIONS
 ...... END OF UHF CALCULATION ......
 CPU     0: STEP CPU TIME=     0.08 TOTAL CPU TIME=         24.4 (      0.4 MIN)
 TOTAL WALL CLOCK TIME=         24.8 SECONDS, CPU UTILIZATION IS    98.29%

 XEDA STEP ENERGY SUMMATION
 ETOT =       -154.62496922     ENUC =        103.47699021

          ---------------------------------------------
          MONOMER ELECTROSTATIC INTERACTION (ALL BASIS)
          ---------------------------------------------

          -------------
          GUESS OPTIONS
          -------------
          GUESS =MOSAVED           NORB  =       0          NORDER=       0
          MIX   =       F          PRTMO =       F          PUNMO =       F
          TOLZ  = 1.0E-08          TOLE  = 1.0E-05
          SYMDEN=       F          PURIFY=       F

 INITIAL GUESS ORBITALS GENERATED BY MOSAVED  ROUTINE.

 STATISTICS FOR GENERATION OF SYMMETRY ORBITAL -Q- MATRIX
 NUMBER OF CARTESIAN ATOMIC ORBITALS=        154
 NUMBER OF SPHERICAL CONTAMINANTS DROPPED=     8
 NUMBER OF LINEARLY DEPENDENT MOS DROPPED=     0
 TOTAL NUMBER OF MOS IN VARIATION SPACE=     146
 ...... END OF INITIAL ORBITAL SELECTION ......
 CPU     0: STEP CPU TIME=     0.01 TOTAL CPU TIME=         24.4 (      0.4 MIN)
 TOTAL WALL CLOCK TIME=         24.8 SECONDS, CPU UTILIZATION IS    98.30%

          ---------------------------
                  UHF SCF CALCULATION
          ---------------------------

 FINAL UHF ENERGY IS     -155.3096637281 AFTER   1 ITERATIONS
 ...... END OF UHF CALCULATION ......
 CPU     0: STEP CPU TIME=     0.08 TOTAL CPU TIME=         24.4 (      0.4 MIN)
 TOTAL WALL CLOCK TIME=         24.9 SECONDS, CPU UTILIZATION IS    98.25%

          -------------
          GUESS OPTIONS
          -------------
          GUESS =MOSAVED           NORB  =       0          NORDER=       0
          MIX   =       F          PRTMO =       F          PUNMO =       F
          TOLZ  = 1.0E-08          TOLE  = 1.0E-05
          SYMDEN=       F          PURIFY=       F

 INITIAL GUESS ORBITALS GENERATED BY MOSAVED  ROUTINE.

 STATISTICS FOR GENERATION OF SYMMETRY ORBITAL -Q- MATRIX
 NUMBER OF CARTESIAN ATOMIC ORBITALS=        154
 NUMBER OF SPHERICAL CONTAMINANTS DROPPED=     8
 NUMBER OF LINEARLY DEPENDENT MOS DROPPED=     0
 TOTAL NUMBER OF MOS IN VARIATION SPACE=     146
 ...... END OF INITIAL ORBITAL SELECTION ......
 CPU     0: STEP CPU TIME=     0.01 TOTAL CPU TIME=         24.4 (      0.4 MIN)
 TOTAL WALL CLOCK TIME=         24.9 SECONDS, CPU UTILIZATION IS    98.26%

          ---------------------------
                  UHF SCF CALCULATION
          ---------------------------

 DIRECT SCF CALCULATION, SCHWRZ=T   FDIFF=T
 SCHWARZ INEQUALITY OVERHEAD:     11935 INTEGRALS, T=        0.00

 FINAL UHF ENERGY IS     -332.2259024176 AFTER   1 ITERATIONS
 ...... END OF UHF CALCULATION ......
 CPU     0: STEP CPU TIME=     0.26 TOTAL CPU TIME=         24.7 (      0.4 MIN)
 TOTAL WALL CLOCK TIME=         25.2 SECONDS, CPU UTILIZATION IS    98.22%

 XEDA STEP ENERGY SUMMATION
 ETOT =       -155.30966373     ENUC =        103.47699021
 EEXCH=        -22.94809066

          --------------------------------------------------
          MONOMER EXCHANGE-REPULSION INTERACTION (ALL BASIS)
          --------------------------------------------------

          -------------
          GUESS OPTIONS
          -------------
          GUESS =MOSAVED           NORB  =       0          NORDER=       0
          MIX   =       F          PRTMO =       F          PUNMO =       F
          TOLZ  = 1.0E-08          TOLE  = 1.0E-05
          SYMDEN=       F          PURIFY=       F

 INITIAL GUESS ORBITALS GENERATED BY MOSAVED  ROUTINE.

 STATISTICS FOR GENERATION OF SYMMETRY ORBITAL -Q- MATRIX
 NUMBER OF CARTESIAN ATOMIC ORBITALS=        154
 NUMBER OF SPHERICAL CONTAMINANTS DROPPED=     8
 NUMBER OF LINEARLY DEPENDENT MOS DROPPED=     0
 TOTAL NUMBER OF MOS IN VARIATION SPACE=     146
 ...... END OF INITIAL ORBITAL SELECTION ......
 CPU     0: STEP CPU TIME=     0.01 TOTAL CPU TIME=         24.7 (      0.4 MIN)
 TOTAL WALL CLOCK TIME=         25.2 SECONDS, CPU UTILIZATION IS    98.22%

          ---------------------------
                  UHF SCF CALCULATION
          ---------------------------

 FINAL UHF ENERGY IS     -154.6297955925 AFTER   1 ITERATIONS
 ...... END OF UHF CALCULATION ......
 CPU     0: STEP CPU TIME=     0.08 TOTAL CPU TIME=         24.8 (      0.4 MIN)
 TOTAL WALL CLOCK TIME=         25.3 SECONDS, CPU UTILIZATION IS    98.18%

 XEDA STEP ENERGY SUMMATION
 ETOT =       -154.62979559     ENUC =        103.47699021

          --------------------------------
          RESULTS OF INTERACTION ANALYSIS
          --------------------------------

     ENERGY TERMS
     T   ELECTRON KINETIC AND COULOMB POTENTIAL
     X   E-E EXCHANGE COMBINE WITH DIAGNANAL VALUE
     N   NUCLEUS-NUCLEUS REPULSION ENERGY

 --------------
 MONOMER ENERGY
 --------------

 MONOMER    1

                   OWN BASIS           ALL BASIS

 T              -93.93379280        -93.93402096
 X              -11.31283718        -11.31316735
 N               27.86935114         27.86935114
 EC              -0.47437303         -0.47490005
 E              -77.85165187        -77.85273721

 MONOMER    2

                   OWN BASIS           ALL BASIS

 T              -93.93377893        -93.93400679
 X              -11.31283653        -11.31316282
 N               27.86933625         27.86933625
 EC              -0.47437508         -0.47492367
 E              -77.85165429        -77.85275703

 ------------------------------------------------------------
 SUPER MOLECULE ENERGY  USING NON-ANTISYMMETRIC WAVEFUNCTION
 (ELECTROSTATIC ENERGY: T N CHANGE)
 ------------------------------------------------------------

              FROM OWN BASIS      FROM ALL BASIS
 T             -235.83282849       -235.83856328
 X              -22.62567371        -22.62633017
 N              103.47699021        103.47699021
 E             -154.98151199       -154.98790324

 ----------------------------------------------------------------------
 SUPER MOLECULE ENERGY  USING ANTISYMMETRIC NONORTHONORMAL WAVEFUNCTION
 (EXCHANGE ENERGY: ONLY X CHANGES)
 ----------------------------------------------------------------------

              FROM OWN BASIS      FROM ALL BASIS
 T             -235.83282849       -235.83856328
 X              -22.94754398        -22.94809066
 N              103.47699021        103.47699021
 E             -155.30338225       -155.30966373

 -----------------------------------------------------------------------
 SUPER MOLECULE ENERGY  USING ANTISYMMETRIC AND ORTHONORMAL WAVEFUNCTION
 (REPULSION ENERGY: T X CHANGE)
 -----------------------------------------------------------------------

              FROM OWN BASIS      FROM ALL BASIS
 T+X           -258.10195942       -258.10678580
 N              103.47699021        103.47699021
 E             -154.62496922       -154.62979559

 ---------------------------------------------
 SUPER MOLECULE ENERGY  USING SCF WAVEFUNCTION
 (POLARIZATION ENERGY: T X CHANGE)
 ---------------------------------------------
 T+X           -258.38670351
 N              103.47699021
 EC              -0.98613181
 E             -155.89584511


                   *******************************
                   SUMMARY OF INTERACTION ENERGIES
                     XEDA IN XIAMEN UNIVERSITY    
                    - ZHEN TANG AND PEIFENG SU -  
                   *******************************


 -------------
 OWN BASIS SET                                       HARTREE          KCAL/MOL
 -------------
 ELECTROSTATIC ENERGY                  ES=         -0.226954           -142.42
 EXCHANGE ENERGY                       EX=         -0.321870           -201.98
 REPULSION ENERGY                     REP=          0.678413            425.71
 POLARIZATION ENERGY                  POL=         -0.284744           -178.68
 ELECTRON CORRELATION                CORR=         -0.037384            -23.46
 TOTAL INTERACTION ENERGY               E=         -0.192539           -120.82
  

 -------------
 ALL BASIS SET                                       HARTREE          KCAL/MOL
 -------------
 ELECTROSTATIC ENERGY                  ES=         -0.232233           -145.73
 EXCHANGE ENERGY                       EX=         -0.321760           -201.91
 REPULSION ENERGY                     REP=          0.679868            426.62
 POLARIZATION ENERGY                  POL=         -0.279918           -175.65
 ELECTRON CORRELATION                CORR=         -0.036308            -22.78
 TOTAL INTERACTION ENERGY               E=         -0.190351           -119.45
  

                     ***************************
                     END OF INTERACTION ANALYSIS
                     ***************************

              1301896  WORDS OF DYNAMIC MEMORY USED
 EXECUTION OF GAMESS TERMINATED NORMALLY 14:32:24 25-DEC-2023    
 DDI: 263640 bytes (0.3 MB / 0 MWords) used by master data server.

 ----------------------------------------
 CPU timing information for all processes
 ========================================
 0: 24.140 + 0.669 = 24.809
 1: 23.939 + 0.538 = 24.477
 2: 23.956 + 0.581 = 24.537
 3: 23.932 + 0.539 = 24.472
 4: 23.735 + 0.443 = 24.179
 5: 23.893 + 0.539 = 24.432
 6: 23.953 + 0.562 = 24.516
 7: 23.910 + 0.532 = 24.442
 8: 23.913 + 0.574 = 24.487
 9: 23.854 + 0.497 = 24.352
 10: 23.895 + 0.568 = 24.463
 11: 23.859 + 0.512 = 24.372
 12: 23.888 + 0.596 = 24.484
 13: 23.670 + 0.342 = 24.13
 14: 23.843 + 0.555 = 24.398
 15: 23.897 + 0.504 = 24.402
 ----------------------------------------
 ddikick.x: exited gracefully.
----- accounting info -----
Files used on the master node w011 were:
-rw-r--r-- 1 xacs0647 10000  2703863 Dec 25 14:32 /job_dir/6_1685756/6.dat
-rw-r--r-- 1 xacs0647 10000      238 Dec 25 14:32 /job_dir/6_1685756/6.err
-rw-r--r-- 1 xacs0647 10000      837 Dec 25 14:31 /job_dir/6_1685756/6.F05
-rw-r--r-- 1 xacs0647 10000 54184816 Dec 25 14:32 /job_dir/6_1685756/6.F08
-rw-r--r-- 1 xacs0647 10000 54004800 Dec 25 14:32 /job_dir/6_1685756/6.F08.001
-rw-r--r-- 1 xacs0647 10000 51124544 Dec 25 14:32 /job_dir/6_1685756/6.F08.002
-rw-r--r-- 1 xacs0647 10000 53824784 Dec 25 14:32 /job_dir/6_1685756/6.F08.003
-rw-r--r-- 1 xacs0647 10000 63185616 Dec 25 14:32 /job_dir/6_1685756/6.F08.004
-rw-r--r-- 1 xacs0647 10000 49144368 Dec 25 14:32 /job_dir/6_1685756/6.F08.005
-rw-r--r-- 1 xacs0647 10000 48784336 Dec 25 14:32 /job_dir/6_1685756/6.F08.006
-rw-r--r-- 1 xacs0647 10000 51304560 Dec 25 14:32 /job_dir/6_1685756/6.F08.007
-rw-r--r-- 1 xacs0647 10000 48604320 Dec 25 14:32 /job_dir/6_1685756/6.F08.008
-rw-r--r-- 1 xacs0647 10000 47704240 Dec 25 14:32 /job_dir/6_1685756/6.F08.009
-rw-r--r-- 1 xacs0647 10000 46624144 Dec 25 14:32 /job_dir/6_1685756/6.F08.010
-rw-r--r-- 1 xacs0647 10000 43383856 Dec 25 14:32 /job_dir/6_1685756/6.F08.011
-rw-r--r-- 1 xacs0647 10000 46264112 Dec 25 14:32 /job_dir/6_1685756/6.F08.012
-rw-r--r-- 1 xacs0647 10000 51124544 Dec 25 14:32 /job_dir/6_1685756/6.F08.013
-rw-r--r-- 1 xacs0647 10000 45724064 Dec 25 14:32 /job_dir/6_1685756/6.F08.014
-rw-r--r-- 1 xacs0647 10000 51124544 Dec 25 14:32 /job_dir/6_1685756/6.F08.015
-rw-r--r-- 1 xacs0647 10000  5758720 Dec 25 14:32 /job_dir/6_1685756/6.F10
-rw-r--r-- 1 xacs0647 10000      837 Dec 25 14:31 /job_dir/6_1685756/6.inp
-rw-r--r-- 1 xacs0647 10000  2403465 Dec 25 14:32 /job_dir/6_1685756/6.out
Mon Dec 25 14:32:27 CST 2023
0.139u 0.064s 0:28.76 0.6%	0+0k 0+40io 0pf+0w
