----- GAMESS execution script 'rungms' -----
This job is running on host w011
under operating system Linux at Mon Dec 25 14:31:59 CST 2023
Available scratch disk space (Kbyte units) at beginning of the job is
Filesystem              1K-blocks     Used Available Use% Mounted on
/dev/mapper/system-root 932514944 15132508 917382436   2% /
GAMESS temporary binary files will be written to /job_dir/7_1685757
GAMESS supplementary output files will be written to /job_dir/7_1685757
Copying input file ./7.inp to your run's scratch directory...
 
Assuming a single but multicore node.
 

 Distributed Data Interface kickoff program.
 Initiating 16 compute processes on 1 nodes to run the following command:
 /share/apps/xeda-apps/xeda-td/gamess.00.x 7 

          *******************************************************
          *                                                     *
          *          GAMESS VERSION = 30 SEP 2020 (R2)          *
          *                                                     *
          *              doi.org/10.1063/5.0005188              *
          *                                                     *
          **************** 64 BIT LINUX VERSION *****************

  GAMESS HAS BEEN MADE POSSIBLE WITH IMPORTANT CONTRIBUTIONS FROM
  THE FOLLOWING INDIVIDUALS (IN ALPHABETICAL ORDER):

     IVANA ADAMOVIC, CHRISTINE AIKENS, TOMOKO AKAMA,
     YURI ALEXEEV, YURIKO AOKI, POOJA ARORA, TOSHIO ASADA,
     ANDREY ASADCHEV, KIM K. BALDRIDGE, PRADIPTA BANDYOPADHYAY,
     MARIA BARYSZ, ROB BELL, JONATHAN BENTZ, COLLEEN BERTONI,
     JERRY A. BOATZ, BRETT BODE, KURT BRORSEN, KURT R. BRORSEN,
     LAIMUTIS BYTAUTAS, CALEB CARLIN, LAURA CARRINGTON,
     GALINA CHABAN, BENOIT CHAMPAGNE, WEI CHEN, MAHITO CHIBA,
     DAN CHIPMAN, CHEOL HO CHOI, TANNER CULPITT,
     DIPAYAN DATTA, PAUL DAY, ALBERT DEFUSCO,
     NUWAN DESILVA, J. EMILIANO DEUSTUA,
     TIM DUDLEY, MICHEL DUPUIS, STEVEN T. ELBERT,
     DMITRI FEDOROV, ALEX FINDLATER, GRAHAM FLETCHER,
     MARK FREITAG, CHRISTIAN FRIEDL, DAVID GARMER,
     IGOR S. GERASIMOV, KURT GLAESEMANN, MARK S. GORDON,
     JEFFREY GOUR, FENG LONG GU, EMILIE B. GUIDEZ,
     ANASTASIA GUNINA, SHARON HAMMES-SCHIFFER, MASATAKE HARUTA,
     KIMIHIKO HIRAO, YASUHIRO IKABATA, TZVETELIN IORDANOV,
     STEPHAN IRLE, KAZUYA ISHIMURA, JOE IVANIC, FRANK JENSEN,
     JAN H. JENSEN, VISVALDAS KAIRYS, MUNEAKI KAMIYA,
     MICHIO KATOUDA, NAOAKI KAWAKAMI, DAN KEMP, BERNARD KIRTMAN,
     KAZUO KITAURA, MARIUSZ KLOBUKOWSKI, MASATO KOBAYASHI,
     PRAKASHAN KORAMBATH, JACEK KORCHOWIEC, SHIRO KOSEKI,
     KAROL KOWALSKI, JIMMY KROMANN, STANISLAW KUCHARSKI,
     HENRY KURTZ, SAROM SOK LEANG, HUI LI, SHUHUA LI, WEI LI,
     JESSE LUTZ, ALEKSANDR O. LYKHIN, MARCIN MAKOWSKI,
     JOANI MATO, NIKITA MATSUNAGA, BENEDETTA MENNUCCI,
     GRANT MERRILL, NORIYUKI MINEZAWA, VLADIMIR MIRONOV,
     EISAKU MIYOSHI, JOHN A. MONTGOMERY JR., HIROTOSHI MORI,
     JONATHAN MULLIN, MONIKA MUSIAL, SHIGERU NAGASE,
     TAKESHI NAGATA, HIROMI NAKAI, TAKAHITO NAKAJIMA,
     YUYA NAKAJIMA, HARUYUKI NAKANO, HIROYA NAKATA, SEAN NEDD,
     HEATHER NETZLOFF, KIET A. NGUYEN, YOSHIO NISHIMOTO,
     BOSILJKA NJEGIC, RYAN OLSON, MIKE PAK, ROBERTO PEVERATI,
     BUU PHAM, PIOTR PIECUCH, ANNA POMOGAEVA, DAVID POOLE,
     SPENCER PRUITT, OLIVIER QUINET, LUKE ROSKOP,
     KLAUS RUEDENBERG, ANDREW SAND, TOSAPORN SATTASATHUCHANA,
     NOZOMI SAWADA, MICHAEL W. SCHMIDT, PATRICK E. SCHNEIDER,
     JUNJI SEINO, PRACHI SHARMA, JUN SHEN, JIM SHOEMAKER,
     YINAN SHU, DEJUN SI, JONATHAN SKONE, LYUDMILA SLIPCHENKO,
     TONY SMITH, JIE SONG, MARK SPACKMAN, CASPER STEINMANN,
     WALT STEVENS, PEIFENG SU, SHUJUN SU, CHET SWALINA,
     TETSUYA TAKETSUGU, ZHEN TAO, NANDUN THELLAMUREGE
     SEIKEN TOKURA, JACOPO TOMASI, TSUGUKI TOUMA, TAKAO TSUNEDA,
     HIROAKI UMEDA, JORGE LUIS GALVEZ VALLEJO, YALI WANG,
     SIMON WEBB, AARON WEST, THERESA L. WINDUS, MARTA WLOCH,
     PENG XU, KIYOSHI YAGI, SUSUMU YANAGISAWA, YANG YANG,
     SOOHAENG YOO, TAKESHI YOSHIKAWA, FEDERICO ZAHARIEV,
     TOBY ZENG

  WHO ARE SUPPORTED BY THEIR INSTITUTION/UNIVERSITY/COMPANY/GROUP
  (IN ALPHABETICAL ORDER):

     EP ANALYTICS, FACULTES UNIVERSITAIRES NOTRE-DAME DE LA PAIX,
     INSTITUTE FOR MOLECULAR SCIENCE, IOWA STATE UNIVERSITY,
     JACKSON STATE UNIVERSITY, JOHANNES KEPLER UNIVERSITY LINZ,
     KYUSHU UNIVERSITY, MICHIGAN STATE UNIVERSITY,
     MIE UNIVERSITY, MOSCOW STATE UNIVERSITY,
     N. COPERNICUS UNIVERSITY, NAGOYA UNIVERSITY,
     NANJING UNIVERSITY, NAT. INST. OF ADVANCED INDUSTRIAL
     SCIENCE AND TECHNOLOGY, NATIONAL INST. OF STANDARDS AND
     TECHNOLOGY, NESMEYANOV INSTITUTE OF ORGANOELEMENT COMPOUNDS
     OF RUSSIAN ACADEMY OF SCIENCES, OSAKA PREFECTURE UNIVERSITY,
     PENNSYLVANIA STATE UNIVERSITY, TOKYO INSTITUTE OF TECHNOLOGY,
     UNIVERSITY OF AARHUS, UNIVERSITY OF ALBERTA,
     UNIVERSITY OF CALIFORNIA AT SANTA BARBARA,
     UNIVERSITY OF COPENHAGEN, UNIVERSITY OF IOWA,
     UNIVERSITY OF MEMPHIS, UNIVERSITY OF MINNESOTA,
     UNIVERSITY OF NEBRASKA, UNIVERSITY OF NEW ENGLAND,
     UNIVERSITY OF NOTRE DAME, UNIVERSITY OF PISA,
     UNIVERSITY OF SILESIA, UNIVERSITY OF TOKYO,
     UNIVERSITY OF ZURICH, WASEDA UNIVERSITY, YALE UNIVERSITY

  GAMESS SOFTWARE MANAGEMENT TEAM FOR THIS RELEASE:
     MARK S. GORDON (TEAM LEAD),
     BRETT BODE (SENIOR ADVISOR),
     GIUSEPPE BARCA,
     COLLEEN BERTONI,
     KRISTOPHER KEIPERT (ADVISOR),
     SAROM S. LEANG (DEVELOPMENT LEAD),
     BUU PHAM,
     JORGE LUIS GALVEZ VALLEJO (WEBSITE ADMINISTRATOR),
     PENG XU


 PARALLEL VERSION RUNNING ON       16 PROCESSORS IN        1 NODES.

 EXECUTION OF GAMESS BEGUN 14:31:59 25-DEC-2023    

            ECHO OF THE FIRST FEW INPUT CARDS -
 INPUT CARD> $CONTRL SCFTYP=UHF RUNTYP=EDA dfttyp=B3LYP ispher=1 icharg=0 mult=1 $END       
 INPUT CARD> $SYSTEM  mwords=150 memddi=150 $END                                            
 INPUT CARD> $BASIS gbasis=accd $END                                                        
 INPUT CARD> $LMOEDA MATOM(1)=5 5 MCHARG(1)=0 0 MMULT(1)=2 -2 edatyp=gks $end               
 INPUT CARD> $scf DIIS=.TRUE. ETHRSH=2.0 SWDIIS=0.005 $end                                  
 INPUT CARD> $data                                                                          
 INPUT CARD> EDA calculation with XEDA 1.0                                                  
 INPUT CARD> c1                                                                             
 INPUT CARD>C   6   -0.1753573891    0.9074460660   -1.3587653697                           
 INPUT CARD>C   6   -0.1753573891    0.9074460660   -0.0018287399                           
 INPUT CARD>H   1   -0.1830010833    1.8656443603    0.5321329798                           
 INPUT CARD>H   1   -0.2096824578   -0.0212742642   -1.9358390528                           
 INPUT CARD>H   1   -0.1550182156    1.8356439660   -1.9344475585                           
 INPUT CARD>C   6   -0.1753573891   -0.3176370880    0.8500664479                           
 INPUT CARD>C   6    0.5028615719   -1.4582389582    0.5666496125                           
 INPUT CARD>H   1    1.1412749135   -1.5454425153   -0.3173986715                           
 INPUT CARD>H   1    0.4519522693   -2.3348928550    1.2164632027                           
 INPUT CARD>H   1   -0.7691608442   -0.2642365423    1.7708546470                           
 INPUT CARD> $end                                                                           
  150000000 WORDS OF MEMORY AVAILABLE

     BASIS OPTIONS
     -------------
     GBASIS=ACCD         IGAUSS=       0      POLAR=NONE    
     NDFUNC=       0     NFFUNC=       0     DIFFSP=       F
     NPFUNC=       0      DIFFS=       F     BASNAM=        


     RUN TITLE
     ---------
  EDA calculation with XEDA 1.0                                                  

 THE POINT GROUP OF THE MOLECULE IS C1      
 THE ORDER OF THE PRINCIPAL AXIS IS     0

 ATOM      ATOMIC                      COORDINATES (BOHR)
           CHARGE         X                   Y                   Z
 C           6.0    -0.3313774153        1.7148244134       -2.5676942303
 C           6.0    -0.3313774153        1.7148244134       -0.0034558173
 H           1.0    -0.3458219029        3.5255566315        1.0055855209
 H           1.0    -0.3962423897       -0.0402025299       -3.6582053661
 H           1.0    -0.2929419506        3.4688641068       -3.6555758232
 C           6.0    -0.3313774153       -0.6002470599        1.6063926579
 C           6.0     0.9502705806       -2.7556720556        1.0708124987
 H           1.0     2.1566968632       -2.9204628837       -0.5997965180
 H           1.0     0.8540659485       -4.4123077066        2.2987821272
 H           1.0    -1.4535032360       -0.4993346609        3.3464300469

          INTERNUCLEAR DISTANCES (ANGS.)
          ------------------------------

                1 C          2 C          3 H          4 H          5 H     

   1 C       0.0000000    1.3569366 *  2.1198347 *  1.0939441 *  1.0924170 *
   2 C       1.3569366 *  0.0000000    1.0969583 *  2.1457156 *  2.1440570 *
   3 H       2.1198347 *  1.0969583 *  0.0000000    3.1067764    2.4669217 *
   4 H       1.0939441 *  2.1457156 *  3.1067764    0.0000000    1.8577232 *
   5 H       1.0924170 *  2.1440570 *  2.4669217 *  1.8577232 *  0.0000000  
   6 C       2.5258200 *  1.4921642 *  2.2063223 *  2.8018349 *  3.5200215  
   7 C       3.1246871    2.5257898 *  3.3940830    2.9723789 *  4.1878345  
   8 H       2.9723101 *  2.8017436 *  3.7564511    2.6014465 *  3.9657242  
   9 H       4.1878492    3.5200162    4.3030206    3.9658040    5.2621316  
  10 H       3.3941073    2.2063203 *  2.5326680 *  3.7565443    4.3030145  

                6 C          7 C          8 H          9 H         10 H     

   1 C       2.5258200 *  3.1246871    2.9723101 *  4.1878492    3.3941073  
   2 C       1.4921642 *  2.5257898 *  2.8017436 *  3.5200162    2.2063203 *
   3 H       2.2063223 *  3.3940830    3.7564511    4.3030206    2.5326680 *
   4 H       2.8018349 *  2.9723789 *  2.6014465 *  3.9658040    3.7565443  
   5 H       3.5200215    4.1878345    3.9657242    5.2621316    4.3030145  
   6 C       0.0000000    1.3569372 *  2.1456937 *  2.1440813 *  1.0969526 *
   7 C       1.3569372 *  0.0000000    1.0939458 *  1.0924154 *  2.1198567 *
   8 H       2.1456937 *  1.0939458 *  0.0000000    1.8577217 *  3.1067757  
   9 H       2.1440813 *  1.0924154 *  1.8577217 *  0.0000000    2.4669991 *
  10 H       1.0969526 *  2.1198567 *  3.1067757    2.4669991 *  0.0000000  

  * ... LESS THAN  3.000


     ATOMIC BASIS SET
     ----------------
 THE CONTRACTED PRIMITIVE FUNCTIONS HAVE BEEN UNNORMALIZED
 THE CONTRACTED BASIS FUNCTIONS ARE NOW NORMALIZED TO UNITY

  SHELL TYPE  PRIMITIVE        EXPONENT          CONTRACTION COEFFICIENT(S)

 C         

      1   S       1          6665.0000000    0.000691583963
      1   S       2          1000.0000000    0.005325796153
      1   S       3           228.0000000    0.027060721042
      1   S       4            64.7100000    0.101656846141
      1   S       5            21.0600000    0.274574823617
      1   S       6             7.4950000    0.448294318924
      1   S       7             2.7970000    0.284902610715
      1   S       8             0.5215000    0.015194859206

      2   S       9          6665.0000000   -0.000293269653
      2   S      10          1000.0000000   -0.002318035474
      2   S      11           228.0000000   -0.011499786039
      2   S      12            64.7100000   -0.046826727010
      2   S      13            21.0600000   -0.128466168750
      2   S      14             7.4950000   -0.301266272463
      2   S      15             2.7970000   -0.255630702330
      2   S      16             0.5215000    1.093793361012

      3   S      17             0.1596000    1.000000000000

      4   P      18             9.4390000    0.056979251590
      4   P      19             2.0020000    0.313207211501
      4   P      20             0.5456000    0.760376741738

      5   P      21             0.1517000    1.000000000000

      6   D      22             0.5500000    1.000000000000

      7   S      23             0.0469000    1.000000000000

      8   P      24             0.0404100    1.000000000000

      9   D      25             0.1510000    1.000000000000

 C         

     10   S      26          6665.0000000    0.000691583963
     10   S      27          1000.0000000    0.005325796153
     10   S      28           228.0000000    0.027060721042
     10   S      29            64.7100000    0.101656846141
     10   S      30            21.0600000    0.274574823617
     10   S      31             7.4950000    0.448294318924
     10   S      32             2.7970000    0.284902610715
     10   S      33             0.5215000    0.015194859206

     11   S      34          6665.0000000   -0.000293269653
     11   S      35          1000.0000000   -0.002318035474
     11   S      36           228.0000000   -0.011499786039
     11   S      37            64.7100000   -0.046826727010
     11   S      38            21.0600000   -0.128466168750
     11   S      39             7.4950000   -0.301266272463
     11   S      40             2.7970000   -0.255630702330
     11   S      41             0.5215000    1.093793361012

     12   S      42             0.1596000    1.000000000000

     13   P      43             9.4390000    0.056979251590
     13   P      44             2.0020000    0.313207211501
     13   P      45             0.5456000    0.760376741738

     14   P      46             0.1517000    1.000000000000

     15   D      47             0.5500000    1.000000000000

     16   S      48             0.0469000    1.000000000000

     17   P      49             0.0404100    1.000000000000

     18   D      50             0.1510000    1.000000000000

 H         

     19   S      51            13.0100000    0.033498726390
     19   S      52             1.9620000    0.234800801174
     19   S      53             0.4446000    0.813682957883

     20   S      54             0.1220000    1.000000000000

     21   P      55             0.7270000    1.000000000000

     22   S      56             0.0297400    1.000000000000

     23   P      57             0.1410000    1.000000000000

 H         

     24   S      58            13.0100000    0.033498726390
     24   S      59             1.9620000    0.234800801174
     24   S      60             0.4446000    0.813682957883

     25   S      61             0.1220000    1.000000000000

     26   P      62             0.7270000    1.000000000000

     27   S      63             0.0297400    1.000000000000

     28   P      64             0.1410000    1.000000000000

 H         

     29   S      65            13.0100000    0.033498726390
     29   S      66             1.9620000    0.234800801174
     29   S      67             0.4446000    0.813682957883

     30   S      68             0.1220000    1.000000000000

     31   P      69             0.7270000    1.000000000000

     32   S      70             0.0297400    1.000000000000

     33   P      71             0.1410000    1.000000000000

 C         

     34   S      72          6665.0000000    0.000691583963
     34   S      73          1000.0000000    0.005325796153
     34   S      74           228.0000000    0.027060721042
     34   S      75            64.7100000    0.101656846141
     34   S      76            21.0600000    0.274574823617
     34   S      77             7.4950000    0.448294318924
     34   S      78             2.7970000    0.284902610715
     34   S      79             0.5215000    0.015194859206

     35   S      80          6665.0000000   -0.000293269653
     35   S      81          1000.0000000   -0.002318035474
     35   S      82           228.0000000   -0.011499786039
     35   S      83            64.7100000   -0.046826727010
     35   S      84            21.0600000   -0.128466168750
     35   S      85             7.4950000   -0.301266272463
     35   S      86             2.7970000   -0.255630702330
     35   S      87             0.5215000    1.093793361012

     36   S      88             0.1596000    1.000000000000

     37   P      89             9.4390000    0.056979251590
     37   P      90             2.0020000    0.313207211501
     37   P      91             0.5456000    0.760376741738

     38   P      92             0.1517000    1.000000000000

     39   D      93             0.5500000    1.000000000000

     40   S      94             0.0469000    1.000000000000

     41   P      95             0.0404100    1.000000000000

     42   D      96             0.1510000    1.000000000000

 C         

     43   S      97          6665.0000000    0.000691583963
     43   S      98          1000.0000000    0.005325796153
     43   S      99           228.0000000    0.027060721042
     43   S     100            64.7100000    0.101656846141
     43   S     101            21.0600000    0.274574823617
     43   S     102             7.4950000    0.448294318924
     43   S     103             2.7970000    0.284902610715
     43   S     104             0.5215000    0.015194859206

     44   S     105          6665.0000000   -0.000293269653
     44   S     106          1000.0000000   -0.002318035474
     44   S     107           228.0000000   -0.011499786039
     44   S     108            64.7100000   -0.046826727010
     44   S     109            21.0600000   -0.128466168750
     44   S     110             7.4950000   -0.301266272463
     44   S     111             2.7970000   -0.255630702330
     44   S     112             0.5215000    1.093793361012

     45   S     113             0.1596000    1.000000000000

     46   P     114             9.4390000    0.056979251590
     46   P     115             2.0020000    0.313207211501
     46   P     116             0.5456000    0.760376741738

     47   P     117             0.1517000    1.000000000000

     48   D     118             0.5500000    1.000000000000

     49   S     119             0.0469000    1.000000000000

     50   P     120             0.0404100    1.000000000000

     51   D     121             0.1510000    1.000000000000

 H         

     52   S     122            13.0100000    0.033498726390
     52   S     123             1.9620000    0.234800801174
     52   S     124             0.4446000    0.813682957883

     53   S     125             0.1220000    1.000000000000

     54   P     126             0.7270000    1.000000000000

     55   S     127             0.0297400    1.000000000000

     56   P     128             0.1410000    1.000000000000

 H         

     57   S     129            13.0100000    0.033498726390
     57   S     130             1.9620000    0.234800801174
     57   S     131             0.4446000    0.813682957883

     58   S     132             0.1220000    1.000000000000

     59   P     133             0.7270000    1.000000000000

     60   S     134             0.0297400    1.000000000000

     61   P     135             0.1410000    1.000000000000

 H         

     62   S     136            13.0100000    0.033498726390
     62   S     137             1.9620000    0.234800801174
     62   S     138             0.4446000    0.813682957883

     63   S     139             0.1220000    1.000000000000

     64   P     140             0.7270000    1.000000000000

     65   S     141             0.0297400    1.000000000000

     66   P     142             0.1410000    1.000000000000

 TOTAL NUMBER OF BASIS SET SHELLS             =   66
 NUMBER OF CARTESIAN GAUSSIAN BASIS FUNCTIONS =  154
 NOTE: THIS RUN WILL RESTRICT THE MO VARIATION SPACE TO SPHERICAL HARMONICS.
 THE NUMBER OF ORBITALS KEPT IN THE VARIATIONAL SPACE WILL BE PRINTED LATER.
 NUMBER OF ELECTRONS                          =   30
 CHARGE OF MOLECULE                           =    0
 SPIN MULTIPLICITY                            =    1
 NUMBER OF OCCUPIED ORBITALS (ALPHA)          =   15
 NUMBER OF OCCUPIED ORBITALS (BETA )          =   15
 TOTAL NUMBER OF ATOMS                        =   10
 THE NUCLEAR REPULSION ENERGY IS      103.4692418185

 SELECTED MURRAY-HANDY-LAMING RADIAL GRID

 LEGACY BECKE'S FUZZY CELL METHOD

 SELECTED ORIGINAL BECKE'S PARTITION FUNCTION

     LEBEDEV GRID-BASED DFT OPTIONS
     ------------------------------
     DFTTYP=B3LYP   
     NRAD  =      96     NLEB  =     302
     NRAD0 =      24     NLEB0 =     110
     SWOFF =    5.00E-03 (PURE SCF -> DFT)
     SWITCH=    3.00E-04 (COARSE -> TIGHT GRID)
     THRESH=    0.00E+00 GTHRE=    1.00E+00

 GRIMME'S EMPIRICAL DISPERSION CORRECTION= F

     $CONTRL OPTIONS
     ---------------
 SCFTYP=UHF          RUNTYP=LMOEDA       EXETYP=RUN     
 MPLEVL=       0     CITYP =NONE         CCTYP =NONE         VBTYP =NONE    
 DFTTYP=B3LYP        TDDFT =NONE    
 MULT  =       1     ICHARG=       0     NZVAR =       0     COORD =UNIQUE  
 PP    =NONE         RELWFN=NONE         LOCAL =NONE         NUMGRD=       F
 ISPHER=       1     NOSYM =       0     MAXIT =      30     UNITS =ANGS    
 PLTORB=       F     MOLPLT=       F     AIMPAC=       F     FRIEND=        
 NPRINT=       7     IREST =       0     GEOM  =INPUT   
 NORMF =       0     NORMP =       0     ITOL  =      20     ICUT  =       9
 INTTYP=BEST         GRDTYP=BEST         QMTTOL= 1.0E-06

     $SYSTEM OPTIONS
     ---------------
  REPLICATED MEMORY=   150000000 WORDS (ON EVERY NODE).
 DISTRIBUTED MEMDDI=         150 MILLION WORDS IN AGGREGATE,
 MEMDDI DISTRIBUTED OVER  16 PROCESSORS IS     9375000 WORDS/PROCESSOR.
 TOTAL MEMORY REQUESTED ON EACH PROCESSOR=   159375000 WORDS.
 TIMLIM=      525600.00 MINUTES, OR     365.0 DAYS.
 PARALL= T  BALTYP=  DLB     KDIAG=    0  COREFL= F
 MXSEQ2=     300 MXSEQ3=     150  mem10=         0  mem22=         0

 Using Gaussians for PCM contribution to MEP, params: 0.10000E+01 0.10000E-07

          ----------------
          PROPERTIES INPUT
          ----------------

     MOMENTS            FIELD           POTENTIAL          DENSITY
 IEMOM =       1   IEFLD =       0   IEPOT =       0   IEDEN =       0
 WHERE =COMASS     WHERE =NUCLEI     WHERE =NUCLEI     WHERE =NUCLEI  
 OUTPUT=BOTH       OUTPUT=BOTH       OUTPUT=BOTH       OUTPUT=BOTH    
 IEMINT=       0   IEFINT=       0                     IEDINT=       0
                                                       MORB  =       0
          EXTRAPOLATION IN EFFECT
          DIIS IN EFFECT
          DIIS or SOSCF will be reset if energy rises
 ORBITAL PRINTING OPTION: NPREO=     1   154     2     1

     -------------------------------
     INTEGRAL TRANSFORMATION OPTIONS
     -------------------------------
     NWORD  =            0
     CUTOFF = 1.0E-09     MPTRAN =       0
     DIRTRF =       F     AOINTS =DUP     

          -----------------------------
          LOCALIZATION INPUT PARAMETERS
          -----------------------------
           LOCAL=RUEDNBRG      NOUTA=       0
          PRTLOC=       F      NOUTB=       0
          MAXLOC=     250     CVGLOC=1.00E-06
           FCORE=       F     SYMLOC=       F
          MOIDON=       F     EDCOMP=       F
          DIPDCM=       F      NPROT=       0
          QADDCM=       F     DEPRNT=       F
          POLNUM=       F     ORIENT=       F
          POLDYN=       F      VMTOL=1.50E-01
          NPRDTL=       2     IBOYAL=       1

          ----------------------
          INTEGRAL INPUT OPTIONS
          ----------------------
 NOPK  =       1 NORDER=       0 SCHWRZ=       T

     ------------------------------------------
     THE POINT GROUP IS C1 , NAXIS= 0, ORDER= 1
     ------------------------------------------

 -- VARIATIONAL SPACE WILL BE RESTRICTED TO PURE SPHERICAL HARMONICS ONLY --
 AFTER EXCLUDING CONTAMINANT COMBINATIONS FROM THE CARTESIAN GAUSSIAN BASIS
 SET, THE NUMBER OF SPHERICAL HARMONICS KEPT IN THE VARIATION SPACE IS  146

     DIMENSIONS OF THE SYMMETRY SUBSPACES ARE
 A   =  146

 ..... DONE SETTING UP THE RUN .....
 CPU     0: STEP CPU TIME=     0.03 TOTAL CPU TIME=          0.0 (      0.0 MIN)
 TOTAL WALL CLOCK TIME=          0.0 SECONDS, CPU UTILIZATION IS    82.68%

          --------------
          GKSEDA OPTIONS
          --------------
          NMOL  =       2          EDATYP=GKS     
          SUPBAS=       T          RDVECM=       F          ITRTN =       T

 *******************
 GKSEDA IS BEGINNING
 *******************

 NMOL =  2

 MONOMER     ATOM   CHARGE ELECTRON MULTIPLE
 -------------------------------------------
       1        5        0       15        2
       2        5        0       15       -2
 -------------------------------------------

 SAVING MOL INFO REQUIRES    598670 WORDS OF MEMORY.

          ********************
          1 ELECTRON INTEGRALS
          ********************
 ...... END OF ONE-ELECTRON INTEGRALS ......
 CPU     0: STEP CPU TIME=     0.01 TOTAL CPU TIME=          0.0 (      0.0 MIN)
 TOTAL WALL CLOCK TIME=          0.0 SECONDS, CPU UTILIZATION IS    84.41%

          -------------
          GUESS OPTIONS
          -------------
          GUESS =HUCKEL            NORB  =       0          NORDER=       0
          MIX   =       F          PRTMO =       F          PUNMO =       F
          TOLZ  = 1.0E-08          TOLE  = 1.0E-05
          SYMDEN=       F          PURIFY=       F

 INITIAL GUESS ORBITALS GENERATED BY HUCKEL   ROUTINE.
 HUCKEL GUESS REQUIRES    180842 WORDS.

 STATISTICS FOR GENERATION OF SYMMETRY ORBITAL -Q- MATRIX
 NUMBER OF CARTESIAN ATOMIC ORBITALS=        154
 NUMBER OF SPHERICAL CONTAMINANTS DROPPED=     8
 NUMBER OF LINEARLY DEPENDENT MOS DROPPED=     0
 TOTAL NUMBER OF MOS IN VARIATION SPACE=     146

 SYMMETRIES FOR INITIAL GUESS ORBITALS FOLLOW.  ALPHA SET(S).
    15 ORBITALS ARE OCCUPIED (    4 CORE ORBITALS).
     5=A        6=A        7=A        8=A        9=A       10=A       11=A   
    12=A       13=A       14=A       15=A       16=A       17=A       18=A   
    19=A       20=A       21=A       22=A       23=A       24=A       25=A   

 SYMMETRIES FOR INITIAL GUESS ORBITALS FOLLOW.   BETA SET(S).
    15 ORBITALS ARE OCCUPIED (    4 CORE ORBITALS).
     5=A        6=A        7=A        8=A        9=A       10=A       11=A   
    12=A       13=A       14=A       15=A       16=A       17=A       18=A   
    19=A       20=A       21=A       22=A       23=A       24=A       25=A   
 ...... END OF INITIAL ORBITAL SELECTION ......
 CPU     0: STEP CPU TIME=     0.01 TOTAL CPU TIME=          0.1 (      0.0 MIN)
 TOTAL WALL CLOCK TIME=          0.1 SECONDS, CPU UTILIZATION IS    88.19%

          -------------------------
          MONOMER  1 WITH OWN BASIS
          -------------------------

     ------------------------------------------
     THE POINT GROUP IS C1 , NAXIS= 0, ORDER= 1
     ------------------------------------------

 -- VARIATIONAL SPACE WILL BE RESTRICTED TO PURE SPHERICAL HARMONICS ONLY --
 AFTER EXCLUDING CONTAMINANT COMBINATIONS FROM THE CARTESIAN GAUSSIAN BASIS
 SET, THE NUMBER OF SPHERICAL HARMONICS KEPT IN THE VARIATION SPACE IS   73

     DIMENSIONS OF THE SYMMETRY SUBSPACES ARE
 A   =   73

          ********************
          1 ELECTRON INTEGRALS
          ********************
 ...... END OF ONE-ELECTRON INTEGRALS ......
 CPU     0: STEP CPU TIME=     0.01 TOTAL CPU TIME=          0.1 (      0.0 MIN)
 TOTAL WALL CLOCK TIME=          0.1 SECONDS, CPU UTILIZATION IS    88.97%

          -------------
          GUESS OPTIONS
          -------------
          GUESS =HUCKEL            NORB  =       0          NORDER=       0
          MIX   =       F          PRTMO =       F          PUNMO =       F
          TOLZ  = 1.0E-08          TOLE  = 1.0E-05
          SYMDEN=       F          PURIFY=       F

 INITIAL GUESS ORBITALS GENERATED BY HUCKEL   ROUTINE.
 HUCKEL GUESS REQUIRES     47410 WORDS.

 STATISTICS FOR GENERATION OF SYMMETRY ORBITAL -Q- MATRIX
 NUMBER OF CARTESIAN ATOMIC ORBITALS=         77
 NUMBER OF SPHERICAL CONTAMINANTS DROPPED=     4
 NUMBER OF LINEARLY DEPENDENT MOS DROPPED=     0
 TOTAL NUMBER OF MOS IN VARIATION SPACE=      73

 SYMMETRIES FOR INITIAL GUESS ORBITALS FOLLOW.  ALPHA SET(S).
     8 ORBITALS ARE OCCUPIED (    2 CORE ORBITALS).
     3=A        4=A        5=A        6=A        7=A        8=A        9=A   
    10=A       11=A       12=A       13=A       14=A       15=A       16=A   
    17=A       18=A   

 SYMMETRIES FOR INITIAL GUESS ORBITALS FOLLOW.   BETA SET(S).
     7 ORBITALS ARE OCCUPIED (    2 CORE ORBITALS).
     3=A        4=A        5=A        6=A        7=A        8=A        9=A   
    10=A       11=A       12=A       13=A       14=A       15=A       16=A   
    17=A   
 ...... END OF INITIAL ORBITAL SELECTION ......
 CPU     0: STEP CPU TIME=     0.00 TOTAL CPU TIME=          0.1 (      0.0 MIN)
 TOTAL WALL CLOCK TIME=          0.1 SECONDS, CPU UTILIZATION IS    89.43%

                    ----------------------
                    AO INTEGRAL TECHNOLOGY
                    ----------------------
     S,P,L SHELL ROTATED AXIS INTEGRALS, REPROGRAMMED BY
        KAZUYA ISHIMURA (IMS) AND JOSE SIERRA (SYNSTAR).
     S,P,D,L SHELL ROTATED AXIS INTEGRALS PROGRAMMED BY
        KAZUYA ISHIMURA (INSTITUTE FOR MOLECULAR SCIENCE).
     S,P,D,F,G SHELL TO TOTAL QUARTET ANGULAR MOMENTUM SUM 5,
        ERIC PROGRAM BY GRAHAM FLETCHER (ELORET AND NASA ADVANCED
        SUPERCOMPUTING DIVISION, AMES RESEARCH CENTER).
     S,P,D,F,G,L SHELL GENERAL RYS QUADRATURE PROGRAMMED BY
        MICHEL DUPUIS (PACIFIC NORTHWEST NATIONAL LABORATORY).

          --------------------
          2 ELECTRON INTEGRALS
          --------------------

 THE -PK- OPTION IS OFF, THE INTEGRALS ARE NOT IN SUPERMATRIX FORM.
 STORING   15000 INTEGRALS/RECORD ON DISK, USING 12 BYTES/INTEGRAL.
 TWO ELECTRON INTEGRAL EVALUATION REQUIRES   90957 WORDS OF MEMORY.
 SCHWARZ INEQUALITY OVERHEAD:      3003 INTEGRALS, T=        0.00
 II,JST,KST,LST =  1  1  1  1 NREC =         1 INTLOC =    1
 II,JST,KST,LST =  2  1  1  1 NREC =         1 INTLOC =    1
 II,JST,KST,LST =  3  1  1  1 NREC =         1 INTLOC =    1
 II,JST,KST,LST =  4  1  1  1 NREC =         1 INTLOC =    1
 II,JST,KST,LST =  5  1  1  1 NREC =         1 INTLOC =    1
 II,JST,KST,LST =  6  1  1  1 NREC =         1 INTLOC =    1
 II,JST,KST,LST =  7  1  1  1 NREC =         1 INTLOC =    4
 II,JST,KST,LST =  8  1  1  1 NREC =         1 INTLOC =  250
 II,JST,KST,LST =  9  1  1  1 NREC =         1 INTLOC =  250
 II,JST,KST,LST = 10  1  1  1 NREC =         1 INTLOC =  250
 II,JST,KST,LST = 11  1  1  1 NREC =         1 INTLOC =  676
 II,JST,KST,LST = 12  1  1  1 NREC =         1 INTLOC =  676
 II,JST,KST,LST = 13  1  1  1 NREC =         1 INTLOC = 1102
 II,JST,KST,LST = 14  1  1  1 NREC =         1 INTLOC = 1950
 II,JST,KST,LST = 15  1  1  1 NREC =         1 INTLOC = 1950
 II,JST,KST,LST = 16  1  1  1 NREC =         1 INTLOC = 8167
 II,JST,KST,LST = 17  1  1  1 NREC =         1 INTLOC = 8167
 II,JST,KST,LST = 18  1  1  1 NREC =         1 INTLOC = 8167
 II,JST,KST,LST = 19  1  1  1 NREC =         2 INTLOC = 4964
 II,JST,KST,LST = 20  1  1  1 NREC =         2 INTLOC = 4964
 II,JST,KST,LST = 21  1  1  1 NREC =         2 INTLOC = 4964
 II,JST,KST,LST = 22  1  1  1 NREC =         3 INTLOC = 8708
 II,JST,KST,LST = 23  1  1  1 NREC =         4 INTLOC = 6261
 II,JST,KST,LST = 24  1  1  1 NREC =         7 INTLOC = 3203
 II,JST,KST,LST = 25  1  1  1 NREC =         7 INTLOC = 3203
 II,JST,KST,LST = 26  1  1  1 NREC =         7 INTLOC =11542
 II,JST,KST,LST = 27  1  1  1 NREC =         9 INTLOC = 1444
 II,JST,KST,LST = 28  1  1  1 NREC =         9 INTLOC = 6995
 II,JST,KST,LST = 29  1  1  1 NREC =        10 INTLOC = 4019
 II,JST,KST,LST = 30  1  1  1 NREC =        11 INTLOC = 5152
 II,JST,KST,LST = 31  1  1  1 NREC =        11 INTLOC =10682
 II,JST,KST,LST = 32  1  1  1 NREC =        12 INTLOC =10791
 II,JST,KST,LST = 33  1  1  1 NREC =        14 INTLOC = 3481
 SCHWARZ INEQUALITY TEST SKIPPED           0 INTEGRAL BLOCKS.
 TOTAL NUMBER OF NONZERO TWO-ELECTRON INTEGRALS =             3900406
        268 INTEGRAL RECORDS WERE STORED ON DISK FILE  8.
  ...... END OF TWO-ELECTRON INTEGRALS .....
 CPU     0: STEP CPU TIME=     0.03 TOTAL CPU TIME=          0.1 (      0.0 MIN)
 TOTAL WALL CLOCK TIME=          0.1 SECONDS, CPU UTILIZATION IS    89.39%

          ---------------------------
              U-B3LYP SCF CALCULATION
          ---------------------------

     NUCLEAR ENERGY =        27.8706080781
     MAXIT = 30     NPUNCH=  2     MULT=  2
     EXTRAP=T  DAMP=F  SHIFT=F  RSTRCT=F  DIIS=T  SOSCF=T
         DENSITY MATRIX CONVERGENCE THRESHOLD=  1.00E-05
     COARSE -> FINE DFT GRID SWITCH THRESHOLD=  3.00E-04 (SWITCH IN $DFT)
                   HF -> DFT SWITCH THRESHOLD=  5.00E-03 (SWOFF IN $DFT)
     SOSCF WILL OPTIMIZE     520 ALPHA AND     462 BETA ROTATION ANGLES.
     SOGTOL= 2.500E-01
     MEMORY REQUIRED FOR UHF/ROHF ITERS=    298732 WORDS.

     EXCHANGE FUNCTIONAL   =B88&HFX   
     CORRELATION FUNCTIONAL=LYP88&VWN5
     DFT THRESHOLD         =.690E-08
     GRID CHANGE THRESHOLD =.300E-03
 FOR AN EULER-MACLAURIN QUADRATURE USING  96 RADIAL POINTS:
 SMALLEST GAUSSIAN PRIMITIVE EXPONENT=        0.0297400000 OF TYPE -S-
 ON ATOM NUMBER   3 HAS RADIAL NORMALIZATION=  1.000000
  LARGEST GAUSSIAN PRIMITIVE EXPONENT=     6665.0000000000 OF TYPE -S-
 ON ATOM NUMBER   1 HAS RADIAL NORMALIZATION=  1.000000
 DFT IS SWITCHED OFF, PERFORMING PURE SCF UNTIL SWOFF THRESHOLD IS REACHED.

 ITER EX      TOTAL ENERGY        E CHANGE  DENSITY CHANGE    DIIS ERROR
          * * *   INITIATING DIIS PROCEDURE   * * *
   1  0      -77.1744015476   -77.1744015476   0.500517169   0.356607679
   2  1      -77.3684769000    -0.1940753524   0.154221916   0.054151971
   3  2      -77.3845149553    -0.0160380553   0.031211345   0.026013719
   4  3      -77.3889292245    -0.0044142692   0.022148205   0.011257376
   5  4      -77.3903203736    -0.0013911491   0.012931555   0.008575533
   6  5      -77.3909718582    -0.0006514846   0.024398596   0.008574878
   7  6      -77.3920413668    -0.0010695086   0.063888217   0.008330665
   8  7      -77.3944152965    -0.0023739298   0.113433755   0.006498843
   9  8      -77.3959847168    -0.0015694202   0.069740539   0.002131501
  10  9      -77.3955438126     0.0004409041   0.043254528   0.004183222
  11 10      -77.3960634440    -0.0005196314   0.007381523   0.000749165
  12 11      -77.3960789201    -0.0000154761   0.000553645   0.000097910
 CONVERGED TO SWOFF, SO DFT CALCULATION IS NOW SWITCHED ON.
          * * *   INITIATING DIIS PROCEDURE   * * *
  13 12      -77.8298665439    -0.4337876238   0.394587903   0.062239274
  14 13      -77.8464723135    -0.0166057696   0.062717513   0.016740583
  15 14      -77.8491564112    -0.0026840977   0.024651865   0.011961595
  16 15      -77.8506143924    -0.0014579812   0.050610769   0.007380521
  17 16      -77.8515961760    -0.0009817836   0.009212856   0.003440084
  18 17      -77.8516797318    -0.0000835558   0.006027488   0.001411711
  19 18      -77.8516996562    -0.0000199245   0.002035501   0.000279340
         SWDIIS THRESHOLD HAS BEEN REACHED: SWITCHING DIIS OFF.
          ---------------START SECOND ORDER SCF---------------
  20 19      -77.8517008247    -0.0000011684   0.000136940   0.000022133
  21 20      -77.8517008374    -0.0000000128   0.000156325   0.000023236
  22 21      -77.8517008381    -0.0000000007   0.000065883   0.000021892
  23 22      -77.8517008425    -0.0000000044   0.000008726   0.000002403
  24 23      -77.8517008426    -0.0000000001   0.000012038   0.000001927

          ----------------
          ENERGY CONVERGED
          ----------------
     TIME TO FORM FOCK OPERATORS=       1.2 SECONDS (       0.1 SEC/ITER)
     TIME TO SOLVE SCF EQUATIONS=       0.1 SECONDS (       0.0 SEC/ITER)

 FINAL U-B3LYP ENERGY IS      -77.8517008426 AFTER  24 ITERATIONS
 DFT EXCHANGE + CORRELATION ENERGY =        -9.5246945443
 TOTAL ELECTRON NUMBER             =        14.9999935938

          --------------------
          SPIN SZ   =    0.500
          S-SQUARED =    0.764
          --------------------

  ----- ALPHA SET ----- 

          ------------
          EIGENVECTORS
          ------------

                      1          2          3          4          5
                  -10.2292   -10.2019    -0.7670    -0.5781    -0.4644
                     A          A          A          A          A   
    1  C  1  S    0.012053   1.009648  -0.019646   0.011328  -0.002214
    2  C  1  S   -0.001521   0.022151   0.316217  -0.227322   0.000524
    3  C  1  S    0.040176  -0.073298   0.096232  -0.323640  -0.033957
    4  C  1  X   -0.000016  -0.000007  -0.000137   0.001209   0.007525
    5  C  1  Y   -0.000025  -0.000004   0.007990   0.031330   0.341396
    6  C  1  Z   -0.001002  -0.000353   0.110550   0.207291  -0.208987
    7  C  1  X    0.000126   0.000081   0.000398  -0.000454  -0.000898
    8  C  1  Y   -0.001302  -0.000279   0.023930   0.027825  -0.016002
    9  C  1  Z    0.038694  -0.008925  -0.028999  -0.242123   0.040409
   10  C  1 XX    0.000212  -0.001625  -0.006310   0.001485  -0.001727
   11  C  1 YY    0.000859   0.000836  -0.007553  -0.011289   0.008539
   12  C  1 ZZ   -0.001071   0.000789   0.013863   0.009803  -0.006812
   13  C  1 XY    0.000028   0.000082  -0.000072  -0.000423   0.000176
   14  C  1 XZ    0.000009   0.000018   0.000006  -0.000174  -0.000336
   15  C  1 YZ    0.000471   0.000055   0.000220   0.002359  -0.006044
   16  C  1  S    0.015218  -0.033887   0.016427   0.138019  -0.060796
   17  C  1  X    0.000049   0.000038  -0.000292  -0.000082  -0.001692
   18  C  1  Y    0.000752   0.000805  -0.003688   0.008978  -0.058625
   19  C  1  Z    0.006200  -0.003679  -0.001971   0.011669  -0.009042
   20  C  1 XX   -0.002136   0.004866   0.006274  -0.007122  -0.006427
   21  C  1 YY   -0.004491   0.001500  -0.008177   0.105875  -0.044722
   22  C  1 ZZ    0.006627  -0.006366   0.001903  -0.098753   0.051149
   23  C  1 XY   -0.000062  -0.000096  -0.001041   0.002885  -0.001527
   24  C  1 XZ   -0.000079  -0.000068   0.000736   0.000289   0.003238
   25  C  1 YZ   -0.003101  -0.001082   0.024764   0.020019   0.104857
   26  C  2  S    1.009987  -0.013629  -0.017094  -0.006423  -0.000333
   27  C  2  S    0.022725  -0.001365   0.307150   0.268893  -0.070697
   28  C  2  S   -0.089938   0.024455   0.252470   0.492621  -0.241975
   29  C  2  X   -0.000027  -0.000005  -0.000671  -0.001150   0.002643
   30  C  2  Y    0.000905   0.000107   0.024657   0.097817   0.255762
   31  C  2  Z   -0.000219   0.000909  -0.128121   0.118675   0.162755
   32  C  2  X    0.000102   0.000061  -0.000514  -0.000194  -0.000300
   33  C  2  Y   -0.003297  -0.001152  -0.057768  -0.093871   0.008845
   34  C  2  Z    0.030783  -0.016846  -0.090940  -0.220117   0.063835
   35  C  2 XX   -0.000850   0.000672  -0.011420  -0.001416  -0.000479
   36  C  2 YY    0.000526   0.000641  -0.003937   0.009840   0.005768
   37  C  2 ZZ    0.000323  -0.001313   0.015358  -0.008424  -0.005289
   38  C  2 XY    0.000004  -0.000006   0.000329   0.000133  -0.000225
   39  C  2 XZ   -0.000011   0.000005  -0.000112  -0.000281  -0.000373
   40  C  2 YZ    0.000881   0.000043  -0.006163  -0.001644  -0.009700
   41  C  2  S   -0.028964   0.019742  -0.018957  -0.117999   0.022667
   42  C  2  X   -0.000010   0.000001   0.000236   0.000032   0.000586
   43  C  2  Y   -0.001404  -0.001327  -0.000370  -0.026886   0.018136
   44  C  2  Z    0.004244  -0.005744   0.006555   0.004875  -0.013377
   45  C  2 XX    0.005985  -0.001054  -0.006755   0.006264   0.001277
   46  C  2 YY    0.004276  -0.001760  -0.017888  -0.059955  -0.008171
   47  C  2 ZZ   -0.010260   0.002815   0.024643   0.053691   0.006894
   48  C  2 XY   -0.000021  -0.000017   0.000740  -0.000361   0.000423
   49  C  2 XZ   -0.000008  -0.000025   0.000470  -0.000157   0.000828
   50  C  2 YZ   -0.004218  -0.001157   0.008741  -0.021582   0.013435
   51  H  3  S   -0.000656  -0.000106   0.124596   0.258544   0.194201
   52  H  3  S    0.021385   0.007219   0.065193   0.272257   0.107576
   53  H  3  X   -0.000011   0.000006   0.000067   0.000252   0.000270
   54  H  3  Y    0.001719  -0.000003  -0.012820  -0.016856  -0.005917
   55  H  3  Z    0.000725   0.000180  -0.011253  -0.009890  -0.005234
   56  H  3  S    0.001289   0.001918   0.003655   0.025947   0.010395
   57  H  3  X    0.000077   0.000029  -0.000221   0.001235  -0.000144
   58  H  3  Y   -0.007718  -0.002235  -0.007773  -0.042495  -0.011718
   59  H  3  Z   -0.002021  -0.000911  -0.017500  -0.029357  -0.010492
   60  H  4  S   -0.000342  -0.000856   0.116568  -0.229402  -0.141418
   61  H  4  S    0.017771   0.021909  -0.010753  -0.218469  -0.198228
   62  H  4  X   -0.000007  -0.000059   0.000509  -0.000709  -0.000172
   63  H  4  Y   -0.000209  -0.001548   0.014330  -0.016896   0.000630
   64  H  4  Z   -0.000616  -0.001022   0.012541  -0.005421  -0.009984
   65  H  4  S    0.001760   0.001997   0.000006  -0.012867  -0.041546
   66  H  4  X    0.000178   0.000260  -0.000472  -0.001626  -0.002111
   67  H  4  Y    0.004828   0.006783  -0.009285  -0.020649  -0.049360
   68  H  4  Z    0.002464   0.003035   0.008794  -0.034234   0.011259
   69  H  5  S   -0.000193  -0.000913   0.126655  -0.203108   0.340867
   70  H  5  S    0.009356   0.019005   0.015396  -0.225318   0.435525
   71  H  5  X   -0.000008   0.000027  -0.000317   0.000414  -0.000234
   72  H  5  Y   -0.000076   0.001518  -0.014522   0.016648  -0.010215
   73  H  5  Z   -0.000423  -0.000943   0.011279  -0.004914   0.005074
   74  H  5  S    0.001708   0.001149   0.002181  -0.013842   0.045401
   75  H  5  X   -0.000075  -0.000140   0.000470   0.000707  -0.000981
   76  H  5  Y   -0.002369  -0.006010   0.000435   0.020128  -0.072761
   77  H  5  Z    0.001976   0.002953  -0.001921  -0.053777   0.040767

                      6          7          8          9         10
                   -0.4136    -0.2851    -0.2736    -0.0198    -0.0019
                     A          A          A          A          A   
    1  C  1  S   -0.000001  -0.000103   0.000566   0.000068  -0.002972
    2  C  1  S   -0.036685  -0.005479   0.050161   0.003012   0.084591
    3  C  1  S   -0.169362  -0.002160   0.023801   0.006648   0.345393
    4  C  1  X   -0.011885   0.389945   0.038414   0.403745  -0.000526
    5  C  1  Y   -0.254405   0.001609  -0.135734  -0.012609   0.029694
    6  C  1  Z   -0.320121  -0.017813   0.112372  -0.000948  -0.096070
    7  C  1  X   -0.000084   0.214577   0.024465   0.338718  -0.001573
    8  C  1  Y    0.060824  -0.010369   0.032130  -0.009087   0.041934
    9  C  1  Z   -0.091619   0.000430  -0.021270  -0.000340  -0.283563
   10  C  1 XX   -0.001149  -0.000023   0.000500   0.000055   0.000937
   11  C  1 YY    0.010541   0.000142  -0.000716  -0.000020  -0.002784
   12  C  1 ZZ   -0.009392  -0.000119   0.000217  -0.000035   0.001846
   13  C  1 XY    0.000451   0.000632   0.000151   0.000053  -0.000052
   14  C  1 XZ   -0.000062   0.021468   0.003203  -0.030076   0.000008
   15  C  1 YZ    0.013775  -0.004088   0.040234  -0.000118   0.001432
   16  C  1  S   -0.038300  -0.017778   0.156975  -0.000284   1.295487
   17  C  1  X    0.000977   0.028537   0.004049   0.562146   0.000558
   18  C  1  Y    0.051515  -0.002606   0.020054  -0.016717   0.037512
   19  C  1  Z   -0.014685  -0.004914   0.039904  -0.004122  -0.298670
   20  C  1 XX   -0.000027   0.000703  -0.005669  -0.000386  -0.039343
   21  C  1 YY   -0.043742  -0.003877   0.029168   0.000163   0.024720
   22  C  1 ZZ    0.043769   0.003174  -0.023499   0.000223   0.014623
   23  C  1 XY   -0.002958   0.004458   0.000903  -0.003266   0.001861
   24  C  1 XZ   -0.001160   0.003848  -0.000858  -0.041808   0.001226
   25  C  1 YZ   -0.052031   0.002811  -0.034712   0.002988   0.026975
   26  C  2  S   -0.000860  -0.000046  -0.000759   0.000031  -0.002516
   27  C  2  S    0.031266   0.018320  -0.150716  -0.003682   0.056123
   28  C  2  S   -0.055197   0.036356  -0.311613  -0.008565   0.366217
   29  C  2  X   -0.007390   0.439417   0.055227  -0.411991   0.000070
   30  C  2  Y    0.036593  -0.053684   0.470506   0.001924   0.044002
   31  C  2  Z    0.374616   0.035127  -0.255026  -0.003107   0.082521
   32  C  2  X   -0.002207   0.254279   0.034208  -0.348853  -0.001376
   33  C  2  Y   -0.065834  -0.025929   0.239249  -0.000908   0.099351
   34  C  2  Z    0.046133   0.026672  -0.221220  -0.001569  -0.007694
   35  C  2 XX   -0.001581   0.000169  -0.004806   0.000141  -0.001700
   36  C  2 YY    0.011089   0.000322   0.000130  -0.000023  -0.004886
   37  C  2 ZZ   -0.009508  -0.000492   0.004677  -0.000118   0.006585
   38  C  2 XY    0.000000  -0.000470  -0.000543  -0.000082  -0.000051
   39  C  2 XZ    0.000354  -0.020325  -0.001777  -0.032096  -0.000034
   40  C  2 YZ    0.017676  -0.001382   0.020352   0.001329  -0.003630
   41  C  2  S   -0.015002   0.029422  -0.260139  -0.001102   0.872585
   42  C  2  X    0.000026   0.031186   0.004342  -0.514173  -0.000820
   43  C  2  Y   -0.035956  -0.002424   0.023309   0.007033   0.190525
   44  C  2  Z   -0.015075  -0.001186   0.007189  -0.004709   0.145538
   45  C  2 XX   -0.003856  -0.001141   0.006964   0.000535  -0.039478
   46  C  2 YY   -0.036915   0.002665  -0.023078  -0.000700  -0.012518
   47  C  2 ZZ    0.040771  -0.001524   0.016114   0.000165   0.051996
   48  C  2 XY    0.001138  -0.001282  -0.000498   0.008338  -0.000405
   49  C  2 XZ    0.000101  -0.007160  -0.000908  -0.037648   0.000326
   50  C  2 YZ   -0.017064   0.000819  -0.011690   0.002610   0.032898
   51  H  3  S    0.233132  -0.019179   0.195409   0.007262   0.005069
   52  H  3  S    0.277803  -0.024504   0.249203   0.006973  -0.357893
   53  H  3  X   -0.000105   0.015576   0.002089  -0.020915   0.000094
   54  H  3  Y   -0.009305  -0.000696   0.006663   0.000166  -0.010715
   55  H  3  Z    0.001104   0.002028  -0.015855  -0.000121  -0.001494
   56  H  3  S    0.036888  -0.002117   0.027662   0.009710  -0.896384
   57  H  3  X   -0.000010   0.015287   0.002629  -0.053367  -0.000448
   58  H  3  Y   -0.038810   0.001701  -0.018085   0.002446   0.031664
   59  H  3  Z   -0.035975   0.003699  -0.029005   0.000573   0.032847
   60  H  4  S    0.324679  -0.011948   0.145020  -0.005208   0.006968
   61  H  4  S    0.391252  -0.015567   0.192909  -0.007998  -0.404863
   62  H  4  X    0.000256   0.014333   0.001560   0.021808   0.000315
   63  H  4  Y    0.009612  -0.000374  -0.000956  -0.000570   0.009646
   64  H  4  Z    0.003174  -0.000721   0.005102   0.000114   0.002073
   65  H  4  S    0.036075  -0.003238   0.039681  -0.013589  -0.639102
   66  H  4  X    0.002038   0.015534   0.002772   0.045394  -0.002762
   67  H  4  Y    0.054933  -0.003808   0.035382  -0.000914  -0.063663
   68  H  4  Z    0.052405  -0.000377   0.003482   0.001700  -0.017208
   69  H  5  S   -0.072852   0.020492  -0.209345   0.001026   0.003826
   70  H  5  S   -0.184014   0.033170  -0.336657   0.003758  -0.418866
   71  H  5  X   -0.000235   0.014275   0.001555   0.022647  -0.000259
   72  H  5  Y   -0.003153  -0.000429  -0.000097  -0.000594  -0.012243
   73  H  5  Z   -0.010879  -0.000183   0.000240  -0.000209   0.003416
   74  H  5  S   -0.043301   0.003037  -0.041747   0.001612  -1.138383
   75  H  5  X    0.002095   0.012623   0.002606   0.052793   0.001132
   76  H  5  Y    0.050981  -0.004465   0.043068  -0.001801   0.036152
   77  H  5  Z   -0.005909   0.002761  -0.023155  -0.000827  -0.024433

                     11         12         13         14         15
                    0.0149     0.0251     0.0627     0.0712     0.0791
                     A          A          A          A          A   
    1  C  1  S   -0.001280   0.002424   0.000680   0.007623   0.002877
    2  C  1  S    0.067438  -0.017232  -0.001064  -0.012415   0.043824
    3  C  1  S    0.186443  -0.129916  -0.038379  -0.388959   0.155001
    4  C  1  X   -0.003936  -0.004328   0.172269  -0.012112   0.001783
    5  C  1  Y   -0.067508  -0.118260  -0.002986   0.037665   0.011937
    6  C  1  Z   -0.036329   0.005030   0.000297   0.013718   0.054449
    7  C  1  X   -0.007550  -0.012566   0.200115  -0.009878  -0.000445
    8  C  1  Y   -0.171538  -0.371820  -0.004059   0.102154   0.010694
    9  C  1  Z   -0.273367   0.104764  -0.014935   0.035514  -0.044518
   10  C  1 XX    0.002792  -0.003169  -0.000371  -0.007369  -0.006860
   11  C  1 YY    0.004882  -0.001756   0.000101   0.001112  -0.010932
   12  C  1 ZZ   -0.007674   0.004925   0.000270   0.006256   0.017793
   13  C  1 XY   -0.000064   0.000013  -0.000822   0.000314  -0.000209
   14  C  1 XZ    0.000175  -0.000115   0.006082  -0.000508  -0.000048
   15  C  1 YZ   -0.004775  -0.003809  -0.000883  -0.010507   0.003110
   16  C  1  S    0.442161  -1.760732  -0.865198 -10.803442   1.459321
   17  C  1  X   -0.023109  -0.053326  -0.625436   0.061046  -0.022076
   18  C  1  Y   -0.205660  -1.938504   0.085590   0.431230  -0.490572
   19  C  1  Z   -0.531609  -0.376755  -0.367011  -4.810932  -1.583931
   20  C  1 XX   -0.010930   0.016747   0.007291   0.080564   0.023099
   21  C  1 YY    0.022240  -0.051538  -0.007310  -0.154402   0.016171
   22  C  1 ZZ   -0.011310   0.034791   0.000019   0.073837  -0.039270
   23  C  1 XY    0.000722  -0.000441   0.023331  -0.009055   0.001340
   24  C  1 XZ    0.000557   0.001955   0.041054  -0.002358   0.004103
   25  C  1 YZ   -0.042951   0.099253  -0.004998   0.004472   0.112904
   26  C  2  S   -0.001264  -0.000750  -0.000897  -0.005498   0.005529
   27  C  2  S   -0.072990   0.048223   0.002615   0.040740   0.031038
   28  C  2  S   -0.231626   0.247445   0.058712   0.427293   0.052187
   29  C  2  X    0.002588  -0.001316   0.127719  -0.010332   0.001951
   30  C  2  Y   -0.085073  -0.045969  -0.011912  -0.142131   0.060855
   31  C  2  Z   -0.027618   0.023448   0.001535   0.004922  -0.075505
   32  C  2  X    0.004427  -0.000568   0.145385  -0.016377   0.001219
   33  C  2  Y   -0.160384   0.095388   0.017078   0.116812  -0.140780
   34  C  2  Z   -0.248303   0.149187  -0.009479   0.046178  -0.062365
   35  C  2 XX   -0.003384   0.001470  -0.000010   0.001483  -0.009976
   36  C  2 YY   -0.001724   0.002164   0.000106  -0.000487  -0.013547
   37  C  2 ZZ    0.005107  -0.003634  -0.000097  -0.000997   0.023523
   38  C  2 XY   -0.000208  -0.000020   0.003952  -0.000170  -0.000004
   39  C  2 XZ    0.000334   0.000320  -0.013362   0.001059  -0.000114
   40  C  2 YZ    0.008191   0.007527   0.000551   0.001890  -0.006748
   41  C  2  S   -0.501183   2.298219   0.899885  11.102077  -0.259122
   42  C  2  X    0.014214   0.017337  -0.592407   0.063691  -0.009064
   43  C  2  Y   -0.554234   1.023556  -0.005021   0.315537  -0.057181
   44  C  2  Z   -0.619549  -0.238540  -0.357912  -4.183704   1.861697
   45  C  2 XX    0.007850  -0.041097  -0.007399  -0.076213   0.063179
   46  C  2 YY   -0.063410   0.033502   0.005932   0.085211  -0.026720
   47  C  2 ZZ    0.055559   0.007595   0.001467  -0.008999  -0.036459
   48  C  2 XY    0.000694   0.000189  -0.039547   0.002585  -0.001976
   49  C  2 XZ    0.000413  -0.000268  -0.015156   0.001574   0.000315
   50  C  2 YZ   -0.072145   0.084728   0.001307   0.060016   0.082815
   51  H  3  S    0.016219   0.014941  -0.000388  -0.022889  -0.018394
   52  H  3  S    0.670715  -0.549933  -0.069025  -0.852636   0.211703
   53  H  3  X    0.000022   0.000120  -0.005755   0.000399   0.000030
   54  H  3  Y    0.010310   0.000122   0.000902   0.009819  -0.008484
   55  H  3  Z    0.008168  -0.000454   0.000220   0.005296   0.007010
   56  H  3  S    2.552789  -1.434927   0.260258   3.486504  -0.139621
   57  H  3  X    0.001085  -0.001960   0.039280  -0.005677   0.001216
   58  H  3  Y   -0.083487   0.134036   0.012278   0.137980  -0.085050
   59  H  3  Z   -0.020955   0.003489   0.016238   0.139425  -0.096297
   60  H  4  S   -0.009468   0.012763  -0.001626  -0.022917  -0.023785
   61  H  4  S   -0.448571  -0.451607   0.035438   0.591967  -0.342323
   62  H  4  X    0.000144   0.000157  -0.003526   0.000293   0.000110
   63  H  4  Y    0.007574   0.002770   0.000196  -0.000189   0.003599
   64  H  4  Z    0.007162   0.002811  -0.000617  -0.010523  -0.011367
   65  H  4  S   -2.044168  -3.108841   0.021230   0.447388  -1.129142
   66  H  4  X   -0.002181  -0.001846   0.070366  -0.002749   0.000814
   67  H  4  Y   -0.060418  -0.052450  -0.001719   0.032240  -0.011127
   68  H  4  Z   -0.008309  -0.053359   0.005832   0.145809   0.029326
   69  H  5  S    0.002723  -0.002546   0.001486   0.025561  -0.038499
   70  H  5  S   -0.159714   0.860629   0.016447   0.407847   0.095695
   71  H  5  X   -0.000295   0.000011  -0.004191   0.000240  -0.000226
   72  H  5  Y   -0.002445   0.004230   0.000141  -0.001326  -0.006282
   73  H  5  Z    0.003247  -0.007287  -0.000181  -0.002323  -0.014272
   74  H  5  S   -0.484763   3.803736  -0.329854  -4.349173   0.570082
   75  H  5  X    0.001940  -0.002121   0.031173  -0.003227  -0.001275
   76  H  5  Y    0.063738  -0.092104  -0.000284  -0.002483  -0.090643
   77  H  5  Z    0.051512   0.068513   0.006226   0.101455   0.038260

                     16         17         18         19         20
                    0.1118     0.1126     0.1167     0.1280     0.1459
                     A          A          A          A          A   
    1  C  1  S    0.005657  -0.001597  -0.038815  -0.014850  -0.014957
    2  C  1  S   -0.057737   0.014868  -0.204898  -0.019264  -0.120220
    3  C  1  S   -0.980598   0.271345   0.323385   0.524943   0.530276
    4  C  1  X   -0.058929  -0.228781  -0.001744   0.008736   0.001462
    5  C  1  Y    0.111666  -0.023308  -0.084293   0.237378   0.038914
    6  C  1  Z    0.002779  -0.000691   0.121380   0.001423   0.130249
    7  C  1  X   -0.062642  -0.176506  -0.001170  -0.030841  -0.006380
    8  C  1  Y   -0.407579   0.118818   0.294380  -0.931880  -0.169583
    9  C  1  Z   -1.194662   0.349913  -1.552944  -0.380827   1.550923
   10  C  1 XX    0.000755  -0.000256   0.019902   0.016667  -0.039498
   11  C  1 YY   -0.000171   0.000026   0.003819  -0.008131   0.048789
   12  C  1 ZZ   -0.000584   0.000230  -0.023721  -0.008536  -0.009291
   13  C  1 XY   -0.000719  -0.001110  -0.000505  -0.000510   0.002223
   14  C  1 XZ    0.001976   0.006589  -0.000216   0.000316  -0.000476
   15  C  1 YZ    0.023405  -0.006256  -0.007318   0.009169  -0.016602
   16  C  1  S   -5.571196   1.369645   5.085804   5.287178   0.145401
   17  C  1  X    0.547165   2.167781   0.033921  -0.163137  -0.061516
   18  C  1  Y   -0.313136   0.043485   1.842019  -6.050567  -2.447760
   19  C  1  Z   -3.517923   0.930017  -1.937586   1.707215   0.563750
   20  C  1 XX    0.045909  -0.012204  -0.160722  -0.036998  -0.096395
   21  C  1 YY    0.175776  -0.053461   0.342175   0.199875  -0.661875
   22  C  1 ZZ   -0.221685   0.065665  -0.181453  -0.162878   0.758270
   23  C  1 XY    0.014170   0.031190   0.014886   0.012241  -0.015452
   24  C  1 XZ    0.016209   0.054663   0.001590   0.006893   0.013728
   25  C  1 YZ   -0.058549   0.015339  -0.014155   0.331486   0.320643
   26  C  2  S    0.008441  -0.002467  -0.035975  -0.026294   0.024647
   27  C  2  S    0.109080  -0.029412  -0.112530  -0.099216   0.012902
   28  C  2  S    0.461936  -0.129110   1.279532   0.779925  -2.184639
   29  C  2  X    0.062536   0.232883   0.000036  -0.000282   0.001873
   30  C  2  Y    0.174368  -0.049235  -0.007675   0.001899  -0.093764
   31  C  2  Z    0.057339  -0.014676  -0.085163  -0.008507  -0.067793
   32  C  2  X    0.068578   0.218264  -0.004224  -0.000621  -0.008555
   33  C  2  Y   -0.355879   0.112310   0.135468   0.405776  -0.511816
   34  C  2  Z   -1.324439   0.387465  -0.893806   0.124535   1.094696
   35  C  2 XX   -0.004690   0.001365   0.005373   0.013483  -0.011868
   36  C  2 YY    0.005948  -0.001491   0.002506  -0.007852   0.017827
   37  C  2 ZZ   -0.001257   0.000126  -0.007879  -0.005630  -0.005960
   38  C  2 XY    0.001235   0.005838  -0.000350  -0.000429   0.000813
   39  C  2 XZ    0.000556   0.004057   0.000114  -0.000569   0.000361
   40  C  2 YZ   -0.015682   0.003560   0.004092  -0.016996   0.001523
   41  C  2  S    3.995487  -0.914645   2.615521  -0.909663  -1.930374
   42  C  2  X   -0.566349  -2.160906  -0.007923   0.036028   0.010590
   43  C  2  Y   -2.704245   0.786991  -0.763742   3.507443   0.702814
   44  C  2  Z   -4.078840   1.081975  -0.140901   2.245343   1.085114
   45  C  2 XX    0.008181  -0.003046  -0.127870  -0.071050  -0.023622
   46  C  2 YY   -0.298754   0.086596  -0.128922   0.040873   0.196929
   47  C  2 ZZ    0.290573  -0.083550   0.256792   0.030177  -0.173306
   48  C  2 XY   -0.013415  -0.060602  -0.001558  -0.000382   0.005353
   49  C  2 XZ    0.024019   0.081952   0.001019  -0.001465   0.002175
   50  C  2 YZ   -0.238438   0.067597   0.094370   0.142851   0.188459
   51  H  3  S   -0.020777   0.001150   0.011003  -0.087419   0.103058
   52  H  3  S    2.184007  -0.656741  -0.535591  -1.785326   0.603632
   53  H  3  X    0.000172   0.000591  -0.000048  -0.000139   0.000008
   54  H  3  Y   -0.019155   0.005522   0.011435   0.011068  -0.008229
   55  H  3  Z   -0.011524   0.003499  -0.001864   0.015140  -0.005261
   56  H  3  S    5.986049  -1.654079   0.164727  -3.851631  -0.778542
   57  H  3  X    0.031598   0.115240  -0.002085  -0.008948   0.007058
   58  H  3  Y   -0.595691   0.172573   0.247159   0.282045   0.217782
   59  H  3  Z   -0.372058   0.106597   0.067141   0.160465  -0.140889
   60  H  4  S    0.027825  -0.004658  -0.002736  -0.057669   0.098759
   61  H  4  S   -1.031186   0.309958  -1.681443  -3.136378   0.722849
   62  H  4  X   -0.000237   0.000405  -0.000368  -0.000710  -0.000680
   63  H  4  Y   -0.010507   0.003151  -0.009515  -0.022785  -0.024021
   64  H  4  Z   -0.008679   0.002622  -0.001004  -0.011053   0.005813
   65  H  4  S   -3.776918   1.028154  -0.778122  -5.119861  -1.964182
   66  H  4  X   -0.030625  -0.084653  -0.017217  -0.026566  -0.003901
   67  H  4  Y   -0.317977   0.092298  -0.440817  -0.569077  -0.472617
   68  H  4  Z   -0.294098   0.081794  -0.208055  -0.571779   0.401655
   69  H  5  S   -0.019031   0.004128  -0.017555  -0.022287   0.225717
   70  H  5  S   -0.024620   0.025372  -2.726589   1.101549   2.827697
   71  H  5  X   -0.000547  -0.001437   0.000663  -0.000390   0.000293
   72  H  5  Y   -0.007820   0.002221   0.026098  -0.016448   0.011391
   73  H  5  Z    0.000675  -0.000090  -0.013624   0.014694  -0.000217
   74  H  5  S   -1.191168   0.332846  -4.239113   6.570117   2.817145
   75  H  5  X   -0.032438  -0.117402   0.013484  -0.008249   0.005143
   76  H  5  Y   -0.007567   0.000580   0.668685  -0.421540   0.139325
   77  H  5  Z    0.102946  -0.023287  -0.419565   0.164093   0.435690

                     21         22         23         24         25
                    0.1684     0.1954     0.2194     0.2529     0.2855
                     A          A          A          A          A   
    1  C  1  S    0.049218   0.018641   0.000247  -0.005137  -0.009707
    2  C  1  S    0.158508   0.011917   0.001160  -0.030049  -0.137052
    3  C  1  S   -2.124213  -0.554661   0.010241   0.740444   0.385390
    4  C  1  X   -0.005960   0.007498   0.001335  -0.004529   0.003103
    5  C  1  Y   -0.065501   0.124758  -0.014438  -0.199902   0.008937
    6  C  1  Z   -0.062685  -0.019435   0.001368   0.075427  -0.015157
    7  C  1  X   -0.005608   0.011277  -0.070116  -0.003533   0.010466
    8  C  1  Y   -0.094270   0.602730  -0.017205  -0.224816   0.080003
    9  C  1  Z   -1.009062   1.215011   0.042860   0.754988   2.392982
   10  C  1 XX    0.014206  -0.024679   0.002885  -0.015392  -0.023598
   11  C  1 YY   -0.005753   0.025582  -0.003157   0.017774  -0.073682
   12  C  1 ZZ   -0.008452  -0.000903   0.000272  -0.002382   0.097280
   13  C  1 XY   -0.002401   0.003648   0.047164  -0.001547  -0.001003
   14  C  1 XZ   -0.000418   0.000458  -0.002684  -0.001191   0.000824
   15  C  1 YZ   -0.037567   0.037543  -0.005799  -0.031496  -0.013348
   16  C  1  S  -18.286690 -20.682841  -0.315577 -10.453573   2.277152
   17  C  1  X   -0.031119   0.057560   0.013339  -0.042852   0.002845
   18  C  1  Y   -0.148265   2.484306  -0.136145  -1.722821  -0.967347
   19  C  1  Z   -6.211085  -5.856524  -0.111336  -2.315648   4.009488
   20  C  1 XX    0.179891   0.119050  -0.016195   0.084965  -0.274582
   21  C  1 YY    0.140678  -0.555904   0.012018  -0.214163   0.133089
   22  C  1 ZZ   -0.320569   0.436855   0.004177   0.129198   0.141493
   23  C  1 XY    0.000685  -0.025009  -0.176047   0.008365  -0.000784
   24  C  1 XZ    0.009383  -0.014576  -0.014677   0.025676  -0.008671
   25  C  1 YZ    0.444687  -0.201556   0.073903   0.855768   0.212180
   26  C  2  S   -0.045734  -0.017454  -0.000195  -0.004363   0.034108
   27  C  2  S   -0.198081  -0.048332  -0.002064  -0.001079   0.162603
   28  C  2  S    1.617662  -0.505327   0.016178  -0.367679  -0.622903
   29  C  2  X    0.005242  -0.007787  -0.039971   0.003179   0.003522
   30  C  2  Y   -0.038969   0.062671   0.010561   0.288703  -0.039175
   31  C  2  Z   -0.109168  -0.007099  -0.004064   0.022059  -0.251239
   32  C  2  X    0.000620  -0.012466  -0.233440  -0.009038   0.019929
   33  C  2  Y   -0.143430   0.798821   0.006862   0.389673   0.424831
   34  C  2  Z   -1.202955   1.119692   0.029203   0.789589   1.554408
   35  C  2 XX   -0.016332   0.012201  -0.000368   0.014550   0.029106
   36  C  2 YY    0.011668   0.003315  -0.000213  -0.021605   0.021600
   37  C  2 ZZ    0.004664  -0.015515   0.000581   0.007054  -0.050706
   38  C  2 XY   -0.000986   0.001433   0.022120  -0.000957  -0.001414
   39  C  2 XZ    0.000502  -0.000056   0.009197   0.000107  -0.000826
   40  C  2 YZ    0.017736  -0.052567   0.004034   0.010127  -0.007162
   41  C  2  S   18.527877  20.828501   0.328428  11.099359  -3.975414
   42  C  2  X    0.024522  -0.014268  -0.167520   0.024580   0.001677
   43  C  2  Y   -1.672532  -1.008116   0.016721   1.585697   1.299118
   44  C  2  Z   -6.127297  -5.216135  -0.155264  -2.453586   1.582741
   45  C  2 XX   -0.185330  -0.161388   0.020887  -0.006258   0.187216
   46  C  2 YY   -0.164475   0.201148   0.001521   0.202339   0.183078
   47  C  2 ZZ    0.349805  -0.039760  -0.022408  -0.196081  -0.370294
   48  C  2 XY   -0.009514   0.016374   0.254206  -0.016084   0.006851
   49  C  2 XZ    0.007472  -0.016034  -0.111066   0.017572   0.001050
   50  C  2 YZ    0.336249   0.272956   0.034472   0.611676   0.328219
   51  H  3  S    0.176382  -0.179820   0.010053  -0.092011  -0.023394
   52  H  3  S   -0.285053  -3.005429  -0.112151  -2.924180  -2.139980
   53  H  3  X    0.000276  -0.000595  -0.004062   0.000423  -0.000282
   54  H  3  Y    0.013065  -0.002231   0.000836  -0.003267   0.002594
   55  H  3  Z    0.005123  -0.007257   0.000294  -0.004520  -0.012040
   56  H  3  S    3.134015   1.709573   0.118453   0.190624  -2.679154
   57  H  3  X   -0.014616   0.011738   0.525876  -0.030840  -0.050844
   58  H  3  Y    0.600129   0.624935   0.014816  -0.234544   0.707732
   59  H  3  Z    0.159631  -0.199343   0.061294   0.212145   0.246714
   60  H  4  S   -0.159488   0.216965  -0.013671   0.013946   0.018159
   61  H  4  S   -0.594360   3.605321  -0.126361  -0.749972   1.172111
   62  H  4  X    0.000445   0.000320  -0.000616   0.000418   0.000336
   63  H  4  Y    0.019964   0.001623   0.001124  -0.000029   0.015510
   64  H  4  Z    0.022016  -0.001688   0.002188   0.024556  -0.008854
   65  H  4  S   -2.005835   0.916502  -0.126020  -0.456125   0.913041
   66  H  4  X    0.018772  -0.006240  -0.729951   0.044371  -0.015797
   67  H  4  Y    0.139098   0.192462   0.017680  -0.337450   0.590493
   68  H  4  Z    0.220970   0.131591   0.050888   0.424684  -0.846948
   69  H  5  S    0.028404  -0.055007   0.010710   0.155911   0.047408
   70  H  5  S    1.536269   1.062132   0.176757   2.749030   1.909401
   71  H  5  X   -0.000658   0.000442   0.003133   0.000219  -0.000199
   72  H  5  Y   -0.015830   0.002033   0.000333   0.016426  -0.012639
   73  H  5  Z   -0.007767   0.016265  -0.002551  -0.017740  -0.017499
   74  H  5  S   -1.442265  -3.077119   0.011596  -0.022865   2.699148
   75  H  5  X   -0.035444   0.034352   0.830698  -0.045271  -0.020381
   76  H  5  Y   -0.472402  -0.046739  -0.058344  -0.029023  -0.829248
   77  H  5  Z   -0.033836   0.603737  -0.047895  -0.516612  -0.870735

                     26         27         28         29         30
                    0.3082     0.3153     0.3553     0.3770     0.4044
                     A          A          A          A          A   
    1  C  1  S   -0.005699  -0.030221  -0.000611  -0.019799   0.040272
    2  C  1  S   -0.024933  -0.127435  -0.000853  -0.059004  -0.016947
    3  C  1  S    0.243206   1.435009   0.021196   1.764402  -2.120115
    4  C  1  X   -0.058329   0.010343  -0.246295   0.006756  -0.000953
    5  C  1  Y   -0.025787  -0.136888   0.009485   0.279417   0.055057
    6  C  1  Z   -0.049037  -0.248764  -0.000539  -0.075910  -0.000392
    7  C  1  X   -0.335632   0.058199  -0.969965   0.098394  -0.014192
    8  C  1  Y    0.073888   0.210760   0.042123   3.089418   0.312020
    9  C  1  Z    0.492713   2.276526  -0.038248   1.735461  -1.813180
   10  C  1 XX   -0.006877  -0.026368  -0.000181  -0.013536   0.018359
   11  C  1 YY   -0.001064   0.001261   0.000174   0.006642   0.008661
   12  C  1 ZZ    0.007941   0.025107   0.000007   0.006894  -0.027020
   13  C  1 XY   -0.034059   0.006997   0.011080  -0.000513  -0.000926
   14  C  1 XZ   -0.018113   0.002819  -0.029591  -0.001279  -0.000792
   15  C  1 YZ   -0.003558  -0.022819  -0.000067  -0.050348  -0.010069
   16  C  1  S    1.385655   4.984184   0.088987   0.104780  -6.246006
   17  C  1  X   -0.117297  -0.054547  -1.111963   0.149828   0.012783
   18  C  1  Y   -0.733278  -3.534624   0.060044   4.843187   1.594319
   19  C  1  Z    0.476220   1.428688   0.016897  -0.062424  -1.788398
   20  C  1 XX   -0.011372  -0.082699  -0.003327  -0.079488   0.531284
   21  C  1 YY   -0.126334  -0.548678   0.005090  -0.334511   0.608738
   22  C  1 ZZ    0.137706   0.631377  -0.001763   0.413998  -1.140022
   23  C  1 XY    0.504867  -0.111580  -0.226065  -0.008345   0.029651
   24  C  1 XZ    0.009587   0.009890   0.076208   0.018765   0.009026
   25  C  1 YZ    0.184806   1.030983   0.015578   0.301960   0.267609
   26  C  2  S    0.006652   0.027189  -0.000229   0.010212   0.032433
   27  C  2  S    0.026628   0.107280   0.000091   0.028010  -0.012371
   28  C  2  S   -0.352844  -1.517970   0.010025  -0.557478  -0.283982
   29  C  2  X   -0.109697   0.025322   0.044487   0.000021  -0.003805
   30  C  2  Y    0.007354   0.033372  -0.003454   0.034715  -0.202771
   31  C  2  Z   -0.004883   0.018220  -0.001076  -0.018598   0.035271
   32  C  2  X   -0.632594   0.112623   0.446868  -0.039839  -0.001294
   33  C  2  Y   -0.082491  -0.468764  -0.041000   0.191651  -2.268984
   34  C  2  Z    0.596548   2.962483  -0.029318   2.009538  -2.946306
   35  C  2 XX    0.006146   0.027890   0.000023   0.007129   0.005664
   36  C  2 YY    0.010369   0.050794  -0.000191   0.011152  -0.021389
   37  C  2 ZZ   -0.016515  -0.078685   0.000168  -0.018281   0.015725
   38  C  2 XY    0.034927  -0.006339  -0.010259   0.000096   0.000755
   39  C  2 XZ    0.024184  -0.004040   0.015220   0.000033   0.000215
   40  C  2 YZ   -0.004579  -0.020837  -0.000858   0.006342  -0.007224
   41  C  2  S   -1.116785  -3.987663  -0.078269   0.617447   0.697706
   42  C  2  X   -0.451397   0.099299   0.535830  -0.042687  -0.001044
   43  C  2  Y    0.563888   2.586601  -0.031048  -0.627329  -2.755563
   44  C  2  Z    0.847114   3.815088   0.015682   0.598468  -1.892031
   45  C  2 XX    0.058015   0.355540  -0.008503   0.140731   0.900220
   46  C  2 YY    0.075679   0.381978   0.000360   0.776057  -0.963807
   47  C  2 ZZ   -0.133694  -0.737518   0.008143  -0.916788   0.063587
   48  C  2 XY   -0.357084   0.068341  -0.179759   0.003598  -0.005541
   49  C  2 XZ   -0.154791   0.034236   0.326462   0.019105   0.005853
   50  C  2 YZ    0.212217   1.133173   0.006731   0.718576   0.125331
   51  H  3  S   -0.008845  -0.018523   0.000172   0.055133  -0.034793
   52  H  3  S   -0.590443  -2.945132   0.052087  -3.283479   6.793532
   53  H  3  X    0.004870  -0.000616   0.000130  -0.000010   0.000012
   54  H  3  Y   -0.000378  -0.000523  -0.000139   0.000411   0.001984
   55  H  3  Z   -0.006963  -0.033934  -0.000136  -0.009497   0.008879
   56  H  3  S   -0.675779  -2.823752  -0.004757  -0.561729   3.007094
   57  H  3  X    1.491637  -0.295947  -0.386060  -0.011159   0.039373
   58  H  3  Y    0.204184   1.029469  -0.007286   0.478736  -1.439346
   59  H  3  Z   -0.205038  -1.048592  -0.008323   0.742785  -0.878521
   60  H  4  S   -0.016018  -0.049138   0.000478   0.026361   0.038911
   61  H  4  S   -0.057248  -0.542160  -0.055286   4.319857   0.170688
   62  H  4  X    0.004959  -0.000637  -0.011927   0.000204  -0.000438
   63  H  4  Y    0.000311  -0.001032   0.000309   0.005028   0.003919
   64  H  4  Z    0.000383   0.003931   0.000273   0.002786   0.000731
   65  H  4  S   -0.252332  -1.292190   0.013331   4.142175   0.216015
   66  H  4  X    1.268069  -0.248055   0.718521   0.034156   0.046062
   67  H  4  Y    0.046984   0.146190  -0.060540  -0.097053  -0.294961
   68  H  4  Z    0.126985   0.769226  -0.000748   1.550826  -0.428705
   69  H  5  S    0.004598   0.044845   0.000591   0.009355   0.022064
   70  H  5  S    0.581125   3.276916  -0.027261  -2.686893   0.495651
   71  H  5  X   -0.006317   0.001410  -0.010024   0.000245   0.000077
   72  H  5  Y    0.000893   0.008324   0.000712   0.014402   0.000652
   73  H  5  Z   -0.006275  -0.032166  -0.000154  -0.018125   0.001653
   74  H  5  S    0.800957   3.576453  -0.016125  -3.863195  -0.967975
   75  H  5  X   -0.456235   0.079600   1.619181  -0.040401  -0.025140
   76  H  5  Y   -0.097153  -0.540875  -0.041513  -0.394225  -0.213234
   77  H  5  Z    0.054238   0.405107  -0.015984  -0.904649  -0.202428

                     31         32         33         34         35
                    0.4383     0.4438     0.4484     0.4763     0.4829
                     A          A          A          A          A   
    1  C  1  S    0.064893   0.013880  -0.000330   0.022525   0.009171
    2  C  1  S    0.031667  -0.047966  -0.001325  -0.026629  -0.019395
    3  C  1  S   -4.209382   0.733078   0.221909  -2.225596  -0.726987
    4  C  1  X    0.008252  -0.037424   0.246972   0.012235  -0.045796
    5  C  1  Y    0.027337  -0.063176  -0.009276  -0.131463   0.042592
    6  C  1  Z    0.083931   0.001332   0.012211  -0.014771  -0.021022
    7  C  1  X    0.054491  -0.169493   1.815638   0.007403  -0.326699
    8  C  1  Y   -0.609060   1.191830   0.420834  -3.658732  -0.670749
    9  C  1  Z    5.913476   3.757435   0.391972  -0.874492  -0.899718
   10  C  1 XX    0.017938  -0.008269   0.000060  -0.012829   0.000190
   11  C  1 YY   -0.026583  -0.005331  -0.001357   0.013024   0.003553
   12  C  1 ZZ    0.008645   0.013599   0.001297  -0.000195  -0.003743
   13  C  1 XY   -0.001035  -0.000832   0.001929   0.000345  -0.004547
   14  C  1 XZ    0.000306   0.000402  -0.014014  -0.002902  -0.030455
   15  C  1 YZ    0.019746   0.011778  -0.002052  -0.010914   0.012873
   16  C  1  S   -6.850976  -3.981974  -0.994942   3.642225   0.321612
   17  C  1  X    0.015641  -0.061948   1.145801   0.045516   0.148653
   18  C  1  Y   -0.595769   1.620130   0.322188  -0.806117  -0.364287
   19  C  1  Z    1.100049   0.252848  -0.109354   0.786365   0.017166
   20  C  1 XX    0.578637   0.273248   0.043392  -0.457699   0.009261
   21  C  1 YY   -1.938338  -0.760134  -0.055563   0.511325   0.383493
   22  C  1 ZZ    1.359700   0.486886   0.012171  -0.053626  -0.392754
   23  C  1 XY   -0.093432  -0.019782  -0.263337   0.016375  -0.298022
   24  C  1 XZ   -0.004357   0.029060  -0.120820   0.076816   1.422759
   25  C  1 YZ    0.633918  -2.621461  -0.302319  -0.111708   0.380809
   26  C  2  S    0.062054   0.028802  -0.000968   0.052990  -0.013947
   27  C  2  S   -0.000658  -0.025439  -0.008589   0.014853   0.008742
   28  C  2  S   -6.417304  -2.516329  -0.003788  -4.197809   1.836617
   29  C  2  X    0.003289   0.015817  -0.254755  -0.026555  -0.250308
   30  C  2  Y    0.126370   0.065711   0.010191  -0.135511   0.010903
   31  C  2  Z    0.031182  -0.081767   0.005749  -0.178642  -0.007449
   32  C  2  X   -0.000102   0.027179  -0.689677  -0.071610  -1.521278
   33  C  2  Y   -0.741695   3.158194   0.387662  -1.468779   0.045672
   34  C  2  Z    3.081372   2.738320   0.396812  -2.432161  -0.819936
   35  C  2 XX    0.033187  -0.000773  -0.000964  -0.010781  -0.001566
   36  C  2 YY   -0.013010   0.026797   0.003284   0.016351  -0.003931
   37  C  2 ZZ   -0.020178  -0.026024  -0.002320  -0.005570   0.005497
   38  C  2 XY   -0.000419  -0.000741   0.004454   0.000433   0.004203
   39  C  2 XZ   -0.000308   0.002676  -0.014945  -0.001843   0.001468
   40  C  2 YZ   -0.021165   0.054085   0.007391   0.012776  -0.009480
   41  C  2  S   -0.692213   1.291288   0.799432  -4.708749  -0.067679
   42  C  2  X    0.002843   0.075705  -1.180327  -0.078563  -0.525640
   43  C  2  Y    0.506897   0.034453  -0.024271  -0.234522   0.135252
   44  C  2  Z   -0.230658  -0.140787  -0.119285   0.148421   0.036237
   45  C  2 XX    0.037612   0.214063   0.015728  -0.144752   0.015431
   46  C  2 YY    0.495132   1.360492   0.098655   0.100979   0.034426
   47  C  2 ZZ   -0.532744  -1.574555  -0.114383   0.043773  -0.049857
   48  C  2 XY    0.015597   0.001102  -0.659751  -0.050160  -0.974124
   49  C  2 XZ    0.025315  -0.156516   1.048829   0.084990  -0.294653
   50  C  2 YZ   -0.354258  -0.840577  -0.014326  -0.384667  -0.160328
   51  H  3  S   -0.094356   0.183978   0.025321   0.125620  -0.051674
   52  H  3  S    1.179269  -3.066789  -0.684978   6.470358  -0.312114
   53  H  3  X   -0.000356   0.000545  -0.017203  -0.001442  -0.021904
   54  H  3  Y   -0.018958   0.012990   0.000944   0.029372  -0.001419
   55  H  3  Z   -0.020885   0.024873   0.003846   0.002882  -0.006921
   56  H  3  S   -0.044904  -0.192713  -0.031852   0.892201  -0.116968
   57  H  3  X   -0.015384  -0.002049   0.748977   0.067450   1.388485
   58  H  3  Y   -0.393783  -0.226407   0.152306  -3.243887   0.138333
   59  H  3  Z   -0.114303   1.433758   0.111511  -0.940852   0.489441
   60  H  4  S   -0.043318  -0.081621  -0.018224   0.021728   0.078046
   61  H  4  S    6.130714   9.324749   1.443046  -5.870139  -1.720410
   62  H  4  X    0.000353  -0.001824   0.016764   0.001536   0.004430
   63  H  4  Y    0.007534  -0.017904  -0.002567   0.003752  -0.002734
   64  H  4  Z   -0.005585  -0.011922   0.000962  -0.001580  -0.010485
   65  H  4  S    1.413597   1.894868   0.299230  -0.894207  -0.168251
   66  H  4  X    0.012422   0.272589  -1.268942  -0.117801   0.144964
   67  H  4  Y    1.096479   2.984367   0.445191  -1.605613  -0.271427
   68  H  4  Z    1.842861   0.128990   0.031945  -1.222489  -0.116967
   69  H  5  S   -0.178023   0.089323   0.014780   0.109053  -0.013735
   70  H  5  S    9.105471  -2.482629  -0.743399   4.683817   0.812747
   71  H  5  X    0.000248  -0.002635   0.007904   0.000633  -0.013291
   72  H  5  Y   -0.006821  -0.005591  -0.000851   0.022430  -0.000876
   73  H  5  Z    0.007075  -0.003859  -0.001870   0.003542   0.004029
   74  H  5  S    1.539118  -0.502062  -0.190589   0.817647   0.207832
   75  H  5  X   -0.052687   0.157629  -0.422221  -0.036193   1.122853
   76  H  5  Y   -2.121021   1.455852   0.333079  -2.550687  -0.355754
   77  H  5  Z    1.122302   0.985751  -0.018333   1.418272  -0.062875

                     36         37         38         39         40
                    0.4872     0.4934     0.5049     0.5566     0.5629
                     A          A          A          A          A   
    1  C  1  S    0.009148   0.104102  -0.024870   0.078530  -0.008350
    2  C  1  S   -0.105129  -0.004699  -0.027087   0.022407   0.003244
    3  C  1  S   -1.426907  -8.286193   4.289591  -8.377321   0.766354
    4  C  1  X    0.026469   0.002909  -0.003914  -0.003452   0.071567
    5  C  1  Y    0.172123   0.006533  -0.109767  -0.062441   0.004488
    6  C  1  Z   -0.248014   0.323579  -0.084216  -0.145308   0.018031
    7  C  1  X    0.198149   0.013127  -0.118940   0.071841   1.361444
    8  C  1  Y   -0.342853  -0.851325  -7.070748  -0.193481   0.180718
    9  C  1  Z   -2.684236  -2.656924   1.372707  -1.621260   0.652802
   10  C  1 XX   -0.010736   0.008645  -0.005945   0.026860  -0.000858
   11  C  1 YY    0.012088   0.031797  -0.008828  -0.008107  -0.000777
   12  C  1 ZZ   -0.001352  -0.040442   0.014772  -0.018753   0.001634
   13  C  1 XY    0.002636   0.001523   0.000229  -0.001163   0.002773
   14  C  1 XZ    0.006023   0.003079   0.001206  -0.005876  -0.055462
   15  C  1 YZ    0.055126  -0.002760   0.013144  -0.027602   0.001854
   16  C  1  S    4.530764  -4.962892  -4.842384 -14.664616   1.631568
   17  C  1  X    0.002137  -0.032660  -0.044474   0.020548   0.222339
   18  C  1  Y   -0.122980  -0.555229  -1.881524   0.913882  -0.125120
   19  C  1  Z    0.346286  -0.195711  -0.980258  -4.851281   0.544682
   20  C  1 XX   -0.302795   0.295577   0.574158  -0.038810   0.012549
   21  C  1 YY    0.405174   2.646566  -0.655615  -1.821778  -0.062620
   22  C  1 ZZ   -0.102380  -2.942143   0.081458   1.860589   0.050071
   23  C  1 XY    0.087983   0.124761   0.066593   0.018738   1.608200
   24  C  1 XZ   -0.234086  -0.152531  -0.073001   0.190190   2.168541
   25  C  1 YZ    0.774491   0.402093   0.266213   0.176645  -0.071010
   26  C  2  S   -0.003759  -0.087744  -0.031897  -0.051223   0.007901
   27  C  2  S    0.093392  -0.080703  -0.011707   0.134903  -0.009351
   28  C  2  S    1.937087  10.042984   2.853773   2.937978  -0.746838
   29  C  2  X    0.030670   0.019610  -0.000667  -0.031866  -0.316514
   30  C  2  Y    0.070421  -0.020082  -0.017493   0.004058   0.004695
   31  C  2  Z   -0.198931   0.175832   0.000934  -0.083925   0.017349
   32  C  2  X    0.224726   0.151394   0.094881  -0.129510  -1.425830
   33  C  2  Y   -0.599964   1.052808   3.284259   0.634695   0.042604
   34  C  2  Z   -2.922877  -3.074367   2.523665  -1.480107   0.602616
   35  C  2 XX    0.013291  -0.049560   0.002440   0.011099   0.001409
   36  C  2 YY   -0.014353   0.004202   0.007057  -0.027362   0.000571
   37  C  2 ZZ    0.001062   0.045358  -0.009497   0.016262  -0.001980
   38  C  2 XY    0.000923   0.000858  -0.000192   0.001762   0.027295
   39  C  2 XZ   -0.002084  -0.000458  -0.000729  -0.001561  -0.033064
   40  C  2 YZ   -0.031447   0.006557   0.010194  -0.013783   0.000642
   41  C  2  S   -4.368640   5.222504   5.839150  15.641121  -1.713040
   42  C  2  X    0.062293   0.047813   0.012383  -0.033488  -0.384271
   43  C  2  Y   -0.243928   0.443068   0.969785  -1.180641   0.162642
   44  C  2  Z    0.372373  -0.705157  -0.710596  -3.806589   0.486941
   45  C  2 XX    0.249566  -0.328955  -0.027336  -0.376169   0.050662
   46  C  2 YY    0.317440  -0.540220   1.467003  -0.927695   0.088997
   47  C  2 ZZ   -0.567006   0.869175  -1.439667   1.303864  -0.139659
   48  C  2 XY    0.148290   0.076940   0.070064  -0.015851   0.056363
   49  C  2 XZ    0.149028   0.027066   0.062744   0.120161   1.890364
   50  C  2 YZ   -0.950459   0.235229  -0.353790   1.026776  -0.053713
   51  H  3  S   -0.180073  -0.029754   0.047151  -0.153025   0.007625
   52  H  3  S    2.509494  -3.803459  -7.376904  -3.017925  -0.021896
   53  H  3  X    0.003561   0.002906   0.001314  -0.001449  -0.001640
[...]
 II,JST,KST,LST =  1  1  1  1 NREC =         1 INTLOC =    1
 II,JST,KST,LST =  2  1  1  1 NREC =         1 INTLOC =    1
 II,JST,KST,LST =  3  1  1  1 NREC =         1 INTLOC =    1
 II,JST,KST,LST =  4  1  1  1 NREC =         1 INTLOC =    1
 II,JST,KST,LST =  5  1  1  1 NREC =         1 INTLOC =    1
 II,JST,KST,LST =  6  1  1  1 NREC =         1 INTLOC =    1
 II,JST,KST,LST =  7  1  1  1 NREC =         1 INTLOC =   16
 II,JST,KST,LST =  8  1  1  1 NREC =         1 INTLOC =   16
 II,JST,KST,LST =  9  1  1  1 NREC =         1 INTLOC =   16
 II,JST,KST,LST = 10  1  1  1 NREC =         1 INTLOC =   97
 II,JST,KST,LST = 11  1  1  1 NREC =         1 INTLOC =   97
 II,JST,KST,LST = 12  1  1  1 NREC =         1 INTLOC =  246
 II,JST,KST,LST = 13  1  1  1 NREC =         1 INTLOC =  568
 II,JST,KST,LST = 14  1  1  1 NREC =         1 INTLOC = 2423
 II,JST,KST,LST = 15  1  1  1 NREC =         1 INTLOC = 2423
 II,JST,KST,LST = 16  1  1  1 NREC =         1 INTLOC = 2423
 II,JST,KST,LST = 17  1  1  1 NREC =         1 INTLOC = 2423
 II,JST,KST,LST = 18  1  1  1 NREC =         1 INTLOC = 2423
 II,JST,KST,LST = 19  1  1  1 NREC =         1 INTLOC = 5185
 II,JST,KST,LST = 20  1  1  1 NREC =         1 INTLOC = 6674
 II,JST,KST,LST = 21  1  1  1 NREC =         2 INTLOC =13496
 II,JST,KST,LST = 22  1  1  1 NREC =        11 INTLOC = 6462
 II,JST,KST,LST = 23  1  1  1 NREC =        13 INTLOC = 6958
 II,JST,KST,LST = 24  1  1  1 NREC =        19 INTLOC = 2820
 II,JST,KST,LST = 25  1  1  1 NREC =        19 INTLOC = 6850
 II,JST,KST,LST = 26  1  1  1 NREC =        20 INTLOC = 4420
 II,JST,KST,LST = 27  1  1  1 NREC =        21 INTLOC =14191
 II,JST,KST,LST = 28  1  1  1 NREC =        22 INTLOC =12233
 II,JST,KST,LST = 29  1  1  1 NREC =        25 INTLOC = 4940
 II,JST,KST,LST = 30  1  1  1 NREC =        25 INTLOC =10491
 II,JST,KST,LST = 31  1  1  1 NREC =        26 INTLOC = 8061
 II,JST,KST,LST = 32  1  1  1 NREC =        31 INTLOC = 5188
 II,JST,KST,LST = 33  1  1  1 NREC =        31 INTLOC = 5188
 II,JST,KST,LST = 34  1  1  1 NREC =        34 INTLOC = 5349
 II,JST,KST,LST = 35  1  1  1 NREC =        35 INTLOC =11175
 II,JST,KST,LST = 36  1  1  1 NREC =        37 INTLOC = 2980
 II,JST,KST,LST = 37  1  1  1 NREC =        37 INTLOC =10687
 II,JST,KST,LST = 38  1  1  1 NREC =        39 INTLOC = 2604
 II,JST,KST,LST = 39  1  1  1 NREC =        42 INTLOC =  142
 II,JST,KST,LST = 40  1  1  1 NREC =        53 INTLOC = 4842
 II,JST,KST,LST = 41  1  1  1 NREC =        53 INTLOC = 4842
 II,JST,KST,LST = 42  1  1  1 NREC =        60 INTLOC = 3181
 II,JST,KST,LST = 43  1  1  1 NREC =        72 INTLOC = 1949
 II,JST,KST,LST = 44  1  1  1 NREC =        72 INTLOC = 1949
 II,JST,KST,LST = 45  1  1  1 NREC =        74 INTLOC =11103
 II,JST,KST,LST = 46  1  1  1 NREC =        74 INTLOC =11103
 II,JST,KST,LST = 47  1  1  1 NREC =        77 INTLOC = 4286
 II,JST,KST,LST = 48  1  1  1 NREC =        90 INTLOC =11650
 II,JST,KST,LST = 49  1  1  1 NREC =        98 INTLOC =12098
 II,JST,KST,LST = 50  1  1  1 NREC =       108 INTLOC = 6478
 II,JST,KST,LST = 51  1  1  1 NREC =       126 INTLOC = 2402
 II,JST,KST,LST = 52  1  1  1 NREC =       137 INTLOC =13705
 II,JST,KST,LST = 53  1  1  1 NREC =       143 INTLOC =14187
 II,JST,KST,LST = 54  1  1  1 NREC =       149 INTLOC =14548
 II,JST,KST,LST = 55  1  1  1 NREC =       183 INTLOC =10098
 II,JST,KST,LST = 56  1  1  1 NREC =       183 INTLOC =10098
 II,JST,KST,LST = 57  1  1  1 NREC =       187 INTLOC =12518
 II,JST,KST,LST = 58  1  1  1 NREC =       193 INTLOC =12991
 II,JST,KST,LST = 59  1  1  1 NREC =       199 INTLOC = 8028
 II,JST,KST,LST = 60  1  1  1 NREC =       206 INTLOC = 1358
 II,JST,KST,LST = 61  1  1  1 NREC =       214 INTLOC = 2585
 II,JST,KST,LST = 62  1  1  1 NREC =       222 INTLOC = 9366
 II,JST,KST,LST = 63  1  1  1 NREC =       232 INTLOC = 4861
 II,JST,KST,LST = 64  1  1  1 NREC =       236 INTLOC = 4639
 II,JST,KST,LST = 65  1  1  1 NREC =       247 INTLOC =  326
 II,JST,KST,LST = 66  1  1  1 NREC =       260 INTLOC =11121
 SCHWARZ INEQUALITY TEST SKIPPED       32873 INTEGRAL BLOCKS.
 TOTAL NUMBER OF NONZERO TWO-ELECTRON INTEGRALS =            67057217
       4480 INTEGRAL RECORDS WERE STORED ON DISK FILE  8.
  ...... END OF TWO-ELECTRON INTEGRALS .....
 CPU     0: STEP CPU TIME=     0.26 TOTAL CPU TIME=         23.6 (      0.4 MIN)
 TOTAL WALL CLOCK TIME=         24.4 SECONDS, CPU UTILIZATION IS    96.79%

          ---------------------------------------------
          MONOMER ELECTROSTATIC INTERACTION (OWN BASIS)
          ---------------------------------------------

          -------------
          GUESS OPTIONS
          -------------
          GUESS =MOSAVED           NORB  =       0          NORDER=       0
          MIX   =       F          PRTMO =       F          PUNMO =       F
          TOLZ  = 1.0E-08          TOLE  = 1.0E-05
          SYMDEN=       F          PURIFY=       F

 INITIAL GUESS ORBITALS GENERATED BY MOSAVED  ROUTINE.

 STATISTICS FOR GENERATION OF SYMMETRY ORBITAL -Q- MATRIX
 NUMBER OF CARTESIAN ATOMIC ORBITALS=        154
 NUMBER OF SPHERICAL CONTAMINANTS DROPPED=     8
 NUMBER OF LINEARLY DEPENDENT MOS DROPPED=     0
 TOTAL NUMBER OF MOS IN VARIATION SPACE=     146
 ...... END OF INITIAL ORBITAL SELECTION ......
 CPU     0: STEP CPU TIME=     0.01 TOTAL CPU TIME=         23.7 (      0.4 MIN)
 TOTAL WALL CLOCK TIME=         24.4 SECONDS, CPU UTILIZATION IS    96.79%

          ---------------------------
                  UHF SCF CALCULATION
          ---------------------------

 FINAL UHF ENERGY IS     -155.3036443398 AFTER   1 ITERATIONS
 ...... END OF UHF CALCULATION ......
 CPU     0: STEP CPU TIME=     0.08 TOTAL CPU TIME=         23.7 (      0.4 MIN)
 TOTAL WALL CLOCK TIME=         24.5 SECONDS, CPU UTILIZATION IS    96.77%

          -------------
          GUESS OPTIONS
          -------------
          GUESS =MOSAVED           NORB  =       0          NORDER=       0
          MIX   =       F          PRTMO =       F          PUNMO =       F
          TOLZ  = 1.0E-08          TOLE  = 1.0E-05
          SYMDEN=       F          PURIFY=       F

 INITIAL GUESS ORBITALS GENERATED BY MOSAVED  ROUTINE.

 STATISTICS FOR GENERATION OF SYMMETRY ORBITAL -Q- MATRIX
 NUMBER OF CARTESIAN ATOMIC ORBITALS=        154
 NUMBER OF SPHERICAL CONTAMINANTS DROPPED=     8
 NUMBER OF LINEARLY DEPENDENT MOS DROPPED=     0
 TOTAL NUMBER OF MOS IN VARIATION SPACE=     146
 ...... END OF INITIAL ORBITAL SELECTION ......
 CPU     0: STEP CPU TIME=     0.01 TOTAL CPU TIME=         23.7 (      0.4 MIN)
 TOTAL WALL CLOCK TIME=         24.5 SECONDS, CPU UTILIZATION IS    96.78%

          ---------------------------
                  UHF SCF CALCULATION
          ---------------------------

 DIRECT SCF CALCULATION, SCHWRZ=T   FDIFF=T
 SCHWARZ INEQUALITY OVERHEAD:     11935 INTEGRALS, T=        0.00

 FINAL UHF ENERGY IS     -332.1985617439 AFTER   1 ITERATIONS
 ...... END OF UHF CALCULATION ......
 CPU     0: STEP CPU TIME=     0.27 TOTAL CPU TIME=         24.0 (      0.4 MIN)
 TOTAL WALL CLOCK TIME=         24.8 SECONDS, CPU UTILIZATION IS    96.78%

 XEDA STEP ENERGY SUMMATION
 ETOT =       -155.30364434     ENUC =        103.46924182
 EEXCH=        -22.94771489

          --------------------------------------------------
          MONOMER EXCHANGE-REPULSION INTERACTION (OWN BASIS)
          --------------------------------------------------

          -------------
          GUESS OPTIONS
          -------------
          GUESS =MOSAVED           NORB  =       0          NORDER=       0
          MIX   =       F          PRTMO =       F          PUNMO =       F
          TOLZ  = 1.0E-08          TOLE  = 1.0E-05
          SYMDEN=       F          PURIFY=       F

 INITIAL GUESS ORBITALS GENERATED BY MOSAVED  ROUTINE.

 STATISTICS FOR GENERATION OF SYMMETRY ORBITAL -Q- MATRIX
 NUMBER OF CARTESIAN ATOMIC ORBITALS=        154
 NUMBER OF SPHERICAL CONTAMINANTS DROPPED=     8
 NUMBER OF LINEARLY DEPENDENT MOS DROPPED=     0
 TOTAL NUMBER OF MOS IN VARIATION SPACE=     146
 ...... END OF INITIAL ORBITAL SELECTION ......
 CPU     0: STEP CPU TIME=     0.01 TOTAL CPU TIME=         24.0 (      0.4 MIN)
 TOTAL WALL CLOCK TIME=         24.8 SECONDS, CPU UTILIZATION IS    96.78%

          ---------------------------
                  UHF SCF CALCULATION
          ---------------------------

 FINAL UHF ENERGY IS     -154.6252229965 AFTER   1 ITERATIONS
 ...... END OF UHF CALCULATION ......
 CPU     0: STEP CPU TIME=     0.08 TOTAL CPU TIME=         24.1 (      0.4 MIN)
 TOTAL WALL CLOCK TIME=         24.9 SECONDS, CPU UTILIZATION IS    96.76%

 XEDA STEP ENERGY SUMMATION
 ETOT =       -154.62522300     ENUC =        103.46924182

          ---------------------------------------------
          MONOMER ELECTROSTATIC INTERACTION (ALL BASIS)
          ---------------------------------------------

          -------------
          GUESS OPTIONS
          -------------
          GUESS =MOSAVED           NORB  =       0          NORDER=       0
          MIX   =       F          PRTMO =       F          PUNMO =       F
          TOLZ  = 1.0E-08          TOLE  = 1.0E-05
          SYMDEN=       F          PURIFY=       F

 INITIAL GUESS ORBITALS GENERATED BY MOSAVED  ROUTINE.

 STATISTICS FOR GENERATION OF SYMMETRY ORBITAL -Q- MATRIX
 NUMBER OF CARTESIAN ATOMIC ORBITALS=        154
 NUMBER OF SPHERICAL CONTAMINANTS DROPPED=     8
 NUMBER OF LINEARLY DEPENDENT MOS DROPPED=     0
 TOTAL NUMBER OF MOS IN VARIATION SPACE=     146
 ...... END OF INITIAL ORBITAL SELECTION ......
 CPU     0: STEP CPU TIME=     0.01 TOTAL CPU TIME=         24.1 (      0.4 MIN)
 TOTAL WALL CLOCK TIME=         24.9 SECONDS, CPU UTILIZATION IS    96.76%

          ---------------------------
                  UHF SCF CALCULATION
          ---------------------------

 FINAL UHF ENERGY IS     -155.3099941527 AFTER   1 ITERATIONS
 ...... END OF UHF CALCULATION ......
 CPU     0: STEP CPU TIME=     0.08 TOTAL CPU TIME=         24.2 (      0.4 MIN)
 TOTAL WALL CLOCK TIME=         25.0 SECONDS, CPU UTILIZATION IS    96.75%

          -------------
          GUESS OPTIONS
          -------------
          GUESS =MOSAVED           NORB  =       0          NORDER=       0
          MIX   =       F          PRTMO =       F          PUNMO =       F
          TOLZ  = 1.0E-08          TOLE  = 1.0E-05
          SYMDEN=       F          PURIFY=       F

 INITIAL GUESS ORBITALS GENERATED BY MOSAVED  ROUTINE.

 STATISTICS FOR GENERATION OF SYMMETRY ORBITAL -Q- MATRIX
 NUMBER OF CARTESIAN ATOMIC ORBITALS=        154
 NUMBER OF SPHERICAL CONTAMINANTS DROPPED=     8
 NUMBER OF LINEARLY DEPENDENT MOS DROPPED=     0
 TOTAL NUMBER OF MOS IN VARIATION SPACE=     146
 ...... END OF INITIAL ORBITAL SELECTION ......
 CPU     0: STEP CPU TIME=     0.01 TOTAL CPU TIME=         24.2 (      0.4 MIN)
 TOTAL WALL CLOCK TIME=         25.0 SECONDS, CPU UTILIZATION IS    96.75%

          ---------------------------
                  UHF SCF CALCULATION
          ---------------------------

 DIRECT SCF CALCULATION, SCHWRZ=T   FDIFF=T
 SCHWARZ INEQUALITY OVERHEAD:     11935 INTEGRALS, T=        0.00

 FINAL UHF ENERGY IS     -332.2212271942 AFTER   1 ITERATIONS
 ...... END OF UHF CALCULATION ......
 CPU     0: STEP CPU TIME=     0.27 TOTAL CPU TIME=         24.4 (      0.4 MIN)
 TOTAL WALL CLOCK TIME=         25.3 SECONDS, CPU UTILIZATION IS    96.76%

 XEDA STEP ENERGY SUMMATION
 ETOT =       -155.30999415     ENUC =        103.46924182
 EEXCH=        -22.94828138

          --------------------------------------------------
          MONOMER EXCHANGE-REPULSION INTERACTION (ALL BASIS)
          --------------------------------------------------

          -------------
          GUESS OPTIONS
          -------------
          GUESS =MOSAVED           NORB  =       0          NORDER=       0
          MIX   =       F          PRTMO =       F          PUNMO =       F
          TOLZ  = 1.0E-08          TOLE  = 1.0E-05
          SYMDEN=       F          PURIFY=       F

 INITIAL GUESS ORBITALS GENERATED BY MOSAVED  ROUTINE.

 STATISTICS FOR GENERATION OF SYMMETRY ORBITAL -Q- MATRIX
 NUMBER OF CARTESIAN ATOMIC ORBITALS=        154
 NUMBER OF SPHERICAL CONTAMINANTS DROPPED=     8
 NUMBER OF LINEARLY DEPENDENT MOS DROPPED=     0
 TOTAL NUMBER OF MOS IN VARIATION SPACE=     146
 ...... END OF INITIAL ORBITAL SELECTION ......
 CPU     0: STEP CPU TIME=     0.01 TOTAL CPU TIME=         24.5 (      0.4 MIN)
 TOTAL WALL CLOCK TIME=         25.3 SECONDS, CPU UTILIZATION IS    96.76%

          ---------------------------
                  UHF SCF CALCULATION
          ---------------------------

 FINAL UHF ENERGY IS     -154.6300448658 AFTER   1 ITERATIONS
 ...... END OF UHF CALCULATION ......
 CPU     0: STEP CPU TIME=     0.08 TOTAL CPU TIME=         24.5 (      0.4 MIN)
 TOTAL WALL CLOCK TIME=         25.4 SECONDS, CPU UTILIZATION IS    96.75%

 XEDA STEP ENERGY SUMMATION
 ETOT =       -154.63004487     ENUC =        103.46924182

          --------------------------------
          RESULTS OF INTERACTION ANALYSIS
          --------------------------------

     ENERGY TERMS
     T   ELECTRON KINETIC AND COULOMB POTENTIAL
     X   E-E EXCHANGE COMBINE WITH DIAGNANAL VALUE
     N   NUCLEUS-NUCLEUS REPULSION ENERGY

 --------------
 MONOMER ENERGY
 --------------

 MONOMER    1

                   OWN BASIS           ALL BASIS

 T              -93.93503379        -93.93527646
 X              -11.31290737        -11.31322344
 N               27.87060808         27.87060808
 EC              -0.47436776         -0.47488781
 E              -77.85170084        -77.85277963

 MONOMER    2

                   OWN BASIS           ALL BASIS

 T              -93.93501751        -93.93526029
 X              -11.31290832        -11.31322011
 N               27.87059265         27.87059265
 EC              -0.47436814         -0.47491041
 E              -77.85170132        -77.85279815

 ------------------------------------------------------------
 SUPER MOLECULE ENERGY  USING NON-ANTISYMMETRIC WAVEFUNCTION
 (ELECTROSTATIC ENERGY: T N CHANGE)
 ------------------------------------------------------------

              FROM OWN BASIS      FROM ALL BASIS
 T             -235.82517126       -235.83095459
 X              -22.62581569        -22.62644354
 N              103.46924182        103.46924182
 E             -154.98174514       -154.98815632

 ----------------------------------------------------------------------
 SUPER MOLECULE ENERGY  USING ANTISYMMETRIC NONORTHONORMAL WAVEFUNCTION
 (EXCHANGE ENERGY: ONLY X CHANGES)
 ----------------------------------------------------------------------

              FROM OWN BASIS      FROM ALL BASIS
 T             -235.82517126       -235.83095459
 X              -22.94771489        -22.94828138
 N              103.46924182        103.46924182
 E             -155.30364434       -155.30999415

 -----------------------------------------------------------------------
 SUPER MOLECULE ENERGY  USING ANTISYMMETRIC AND ORTHONORMAL WAVEFUNCTION
 (REPULSION ENERGY: T X CHANGE)
 -----------------------------------------------------------------------

              FROM OWN BASIS      FROM ALL BASIS
 T+X           -258.09446481       -258.09928668
 N              103.46924182        103.46924182
 E             -154.62522300       -154.63004487

 ---------------------------------------------
 SUPER MOLECULE ENERGY  USING SCF WAVEFUNCTION
 (POLARIZATION ENERGY: T X CHANGE)
 ---------------------------------------------
 T+X           -258.37902299
 N              103.46924182
 EC              -0.98601249
 E             -155.89579366


                   *******************************
                   SUMMARY OF INTERACTION ENERGIES
                     XEDA IN XIAMEN UNIVERSITY    
                    - ZHEN TANG AND PEIFENG SU -  
                   *******************************


 -------------
 OWN BASIS SET                                       HARTREE          KCAL/MOL
 -------------
 ELECTROSTATIC ENERGY                  ES=         -0.227079           -142.49
 EXCHANGE ENERGY                       EX=         -0.321899           -201.99
 REPULSION ENERGY                     REP=          0.678421            425.72
 POLARIZATION ENERGY                  POL=         -0.284558           -178.56
 ELECTRON CORRELATION                CORR=         -0.037277            -23.39
 TOTAL INTERACTION ENERGY               E=         -0.192392           -120.73
  

 -------------
 ALL BASIS SET                                       HARTREE          KCAL/MOL
 -------------
 ELECTROSTATIC ENERGY                  ES=         -0.232377           -145.82
 EXCHANGE ENERGY                       EX=         -0.321838           -201.96
 REPULSION ENERGY                     REP=          0.679949            426.67
 POLARIZATION ENERGY                  POL=         -0.279736           -175.54
 ELECTRON CORRELATION                CORR=         -0.036214            -22.72
 TOTAL INTERACTION ENERGY               E=         -0.190216           -119.36
  

                     ***************************
                     END OF INTERACTION ANALYSIS
                     ***************************

              1301896  WORDS OF DYNAMIC MEMORY USED
 EXECUTION OF GAMESS TERMINATED NORMALLY 14:32:24 25-DEC-2023    
 DDI: 263640 bytes (0.3 MB / 0 MWords) used by master data server.

 ----------------------------------------
 CPU timing information for all processes
 ========================================
 0: 23.969 + 0.570 = 24.539
 1: 23.909 + 0.560 = 24.470
 2: 23.920 + 0.606 = 24.527
 3: 23.931 + 0.547 = 24.478
 4: 23.976 + 0.594 = 24.570
 5: 23.778 + 0.456 = 24.235
 6: 23.882 + 0.626 = 24.508
 7: 23.878 + 0.535 = 24.413
 8: 23.863 + 0.554 = 24.418
 9: 23.905 + 0.529 = 24.435
 10: 23.862 + 0.609 = 24.472
 11: 23.853 + 0.534 = 24.388
 12: 23.935 + 0.540 = 24.476
 13: 23.865 + 0.538 = 24.403
 14: 23.922 + 0.540 = 24.462
 15: 23.867 + 0.517 = 24.384
 ----------------------------------------
 ddikick.x: exited gracefully.
----- accounting info -----
Files used on the master node w011 were:
-rw-r--r-- 1 xacs0647 10000  2703863 Dec 25 14:32 /job_dir/7_1685757/7.dat
-rw-r--r-- 1 xacs0647 10000      238 Dec 25 14:32 /job_dir/7_1685757/7.err
-rw-r--r-- 1 xacs0647 10000      837 Dec 25 14:31 /job_dir/7_1685757/7.F05
-rw-r--r-- 1 xacs0647 10000 52204640 Dec 25 14:32 /job_dir/7_1685757/7.F08
-rw-r--r-- 1 xacs0647 10000 45184016 Dec 25 14:32 /job_dir/7_1685757/7.F08.001
-rw-r--r-- 1 xacs0647 10000 46264112 Dec 25 14:32 /job_dir/7_1685757/7.F08.002
-rw-r--r-- 1 xacs0647 10000 54904880 Dec 25 14:32 /job_dir/7_1685757/7.F08.003
-rw-r--r-- 1 xacs0647 10000 54364832 Dec 25 14:32 /job_dir/7_1685757/7.F08.004
-rw-r--r-- 1 xacs0647 10000 52024624 Dec 25 14:32 /job_dir/7_1685757/7.F08.005
-rw-r--r-- 1 xacs0647 10000 46084096 Dec 25 14:32 /job_dir/7_1685757/7.F08.006
-rw-r--r-- 1 xacs0647 10000 49864432 Dec 25 14:32 /job_dir/7_1685757/7.F08.007
-rw-r--r-- 1 xacs0647 10000 55624944 Dec 25 14:32 /job_dir/7_1685757/7.F08.008
-rw-r--r-- 1 xacs0647 10000 50944528 Dec 25 14:32 /job_dir/7_1685757/7.F08.009
-rw-r--r-- 1 xacs0647 10000 52024624 Dec 25 14:32 /job_dir/7_1685757/7.F08.010
-rw-r--r-- 1 xacs0647 10000 52564672 Dec 25 14:32 /job_dir/7_1685757/7.F08.011
-rw-r--r-- 1 xacs0647 10000 47344208 Dec 25 14:32 /job_dir/7_1685757/7.F08.012
-rw-r--r-- 1 xacs0647 10000 47344208 Dec 25 14:32 /job_dir/7_1685757/7.F08.013
-rw-r--r-- 1 xacs0647 10000 50764512 Dec 25 14:32 /job_dir/7_1685757/7.F08.014
-rw-r--r-- 1 xacs0647 10000 48964352 Dec 25 14:32 /job_dir/7_1685757/7.F08.015
-rw-r--r-- 1 xacs0647 10000  5758720 Dec 25 14:32 /job_dir/7_1685757/7.F10
-rw-r--r-- 1 xacs0647 10000      837 Dec 25 14:31 /job_dir/7_1685757/7.inp
-rw-r--r-- 1 xacs0647 10000  2403466 Dec 25 14:32 /job_dir/7_1685757/7.out
Mon Dec 25 14:32:27 CST 2023
0.091u 0.060s 0:28.52 0.5%	0+0k 0+40io 0pf+0w
