----- GAMESS execution script 'rungms' -----
This job is running on host w013
under operating system Linux at Mon Dec 25 14:31:59 CST 2023
Available scratch disk space (Kbyte units) at beginning of the job is
Filesystem              1K-blocks    Used Available Use% Mounted on
/dev/mapper/system-root 932514944 2682128 929832816   1% /
GAMESS temporary binary files will be written to /job_dir/8_1685758
GAMESS supplementary output files will be written to /job_dir/8_1685758
Copying input file ./8.inp to your run's scratch directory...
 
Assuming a single but multicore node.
 

 Distributed Data Interface kickoff program.
 Initiating 16 compute processes on 1 nodes to run the following command:
 /share/apps/xeda-apps/xeda-td/gamess.00.x 8 

          *******************************************************
          *                                                     *
          *          GAMESS VERSION = 30 SEP 2020 (R2)          *
          *                                                     *
          *              doi.org/10.1063/5.0005188              *
          *                                                     *
          **************** 64 BIT LINUX VERSION *****************

  GAMESS HAS BEEN MADE POSSIBLE WITH IMPORTANT CONTRIBUTIONS FROM
  THE FOLLOWING INDIVIDUALS (IN ALPHABETICAL ORDER):

     IVANA ADAMOVIC, CHRISTINE AIKENS, TOMOKO AKAMA,
     YURI ALEXEEV, YURIKO AOKI, POOJA ARORA, TOSHIO ASADA,
     ANDREY ASADCHEV, KIM K. BALDRIDGE, PRADIPTA BANDYOPADHYAY,
     MARIA BARYSZ, ROB BELL, JONATHAN BENTZ, COLLEEN BERTONI,
     JERRY A. BOATZ, BRETT BODE, KURT BRORSEN, KURT R. BRORSEN,
     LAIMUTIS BYTAUTAS, CALEB CARLIN, LAURA CARRINGTON,
     GALINA CHABAN, BENOIT CHAMPAGNE, WEI CHEN, MAHITO CHIBA,
     DAN CHIPMAN, CHEOL HO CHOI, TANNER CULPITT,
     DIPAYAN DATTA, PAUL DAY, ALBERT DEFUSCO,
     NUWAN DESILVA, J. EMILIANO DEUSTUA,
     TIM DUDLEY, MICHEL DUPUIS, STEVEN T. ELBERT,
     DMITRI FEDOROV, ALEX FINDLATER, GRAHAM FLETCHER,
     MARK FREITAG, CHRISTIAN FRIEDL, DAVID GARMER,
     IGOR S. GERASIMOV, KURT GLAESEMANN, MARK S. GORDON,
     JEFFREY GOUR, FENG LONG GU, EMILIE B. GUIDEZ,
     ANASTASIA GUNINA, SHARON HAMMES-SCHIFFER, MASATAKE HARUTA,
     KIMIHIKO HIRAO, YASUHIRO IKABATA, TZVETELIN IORDANOV,
     STEPHAN IRLE, KAZUYA ISHIMURA, JOE IVANIC, FRANK JENSEN,
     JAN H. JENSEN, VISVALDAS KAIRYS, MUNEAKI KAMIYA,
     MICHIO KATOUDA, NAOAKI KAWAKAMI, DAN KEMP, BERNARD KIRTMAN,
     KAZUO KITAURA, MARIUSZ KLOBUKOWSKI, MASATO KOBAYASHI,
     PRAKASHAN KORAMBATH, JACEK KORCHOWIEC, SHIRO KOSEKI,
     KAROL KOWALSKI, JIMMY KROMANN, STANISLAW KUCHARSKI,
     HENRY KURTZ, SAROM SOK LEANG, HUI LI, SHUHUA LI, WEI LI,
     JESSE LUTZ, ALEKSANDR O. LYKHIN, MARCIN MAKOWSKI,
     JOANI MATO, NIKITA MATSUNAGA, BENEDETTA MENNUCCI,
     GRANT MERRILL, NORIYUKI MINEZAWA, VLADIMIR MIRONOV,
     EISAKU MIYOSHI, JOHN A. MONTGOMERY JR., HIROTOSHI MORI,
     JONATHAN MULLIN, MONIKA MUSIAL, SHIGERU NAGASE,
     TAKESHI NAGATA, HIROMI NAKAI, TAKAHITO NAKAJIMA,
     YUYA NAKAJIMA, HARUYUKI NAKANO, HIROYA NAKATA, SEAN NEDD,
     HEATHER NETZLOFF, KIET A. NGUYEN, YOSHIO NISHIMOTO,
     BOSILJKA NJEGIC, RYAN OLSON, MIKE PAK, ROBERTO PEVERATI,
     BUU PHAM, PIOTR PIECUCH, ANNA POMOGAEVA, DAVID POOLE,
     SPENCER PRUITT, OLIVIER QUINET, LUKE ROSKOP,
     KLAUS RUEDENBERG, ANDREW SAND, TOSAPORN SATTASATHUCHANA,
     NOZOMI SAWADA, MICHAEL W. SCHMIDT, PATRICK E. SCHNEIDER,
     JUNJI SEINO, PRACHI SHARMA, JUN SHEN, JIM SHOEMAKER,
     YINAN SHU, DEJUN SI, JONATHAN SKONE, LYUDMILA SLIPCHENKO,
     TONY SMITH, JIE SONG, MARK SPACKMAN, CASPER STEINMANN,
     WALT STEVENS, PEIFENG SU, SHUJUN SU, CHET SWALINA,
     TETSUYA TAKETSUGU, ZHEN TAO, NANDUN THELLAMUREGE
     SEIKEN TOKURA, JACOPO TOMASI, TSUGUKI TOUMA, TAKAO TSUNEDA,
     HIROAKI UMEDA, JORGE LUIS GALVEZ VALLEJO, YALI WANG,
     SIMON WEBB, AARON WEST, THERESA L. WINDUS, MARTA WLOCH,
     PENG XU, KIYOSHI YAGI, SUSUMU YANAGISAWA, YANG YANG,
     SOOHAENG YOO, TAKESHI YOSHIKAWA, FEDERICO ZAHARIEV,
     TOBY ZENG

  WHO ARE SUPPORTED BY THEIR INSTITUTION/UNIVERSITY/COMPANY/GROUP
  (IN ALPHABETICAL ORDER):

     EP ANALYTICS, FACULTES UNIVERSITAIRES NOTRE-DAME DE LA PAIX,
     INSTITUTE FOR MOLECULAR SCIENCE, IOWA STATE UNIVERSITY,
     JACKSON STATE UNIVERSITY, JOHANNES KEPLER UNIVERSITY LINZ,
     KYUSHU UNIVERSITY, MICHIGAN STATE UNIVERSITY,
     MIE UNIVERSITY, MOSCOW STATE UNIVERSITY,
     N. COPERNICUS UNIVERSITY, NAGOYA UNIVERSITY,
     NANJING UNIVERSITY, NAT. INST. OF ADVANCED INDUSTRIAL
     SCIENCE AND TECHNOLOGY, NATIONAL INST. OF STANDARDS AND
     TECHNOLOGY, NESMEYANOV INSTITUTE OF ORGANOELEMENT COMPOUNDS
     OF RUSSIAN ACADEMY OF SCIENCES, OSAKA PREFECTURE UNIVERSITY,
     PENNSYLVANIA STATE UNIVERSITY, TOKYO INSTITUTE OF TECHNOLOGY,
     UNIVERSITY OF AARHUS, UNIVERSITY OF ALBERTA,
     UNIVERSITY OF CALIFORNIA AT SANTA BARBARA,
     UNIVERSITY OF COPENHAGEN, UNIVERSITY OF IOWA,
     UNIVERSITY OF MEMPHIS, UNIVERSITY OF MINNESOTA,
     UNIVERSITY OF NEBRASKA, UNIVERSITY OF NEW ENGLAND,
     UNIVERSITY OF NOTRE DAME, UNIVERSITY OF PISA,
     UNIVERSITY OF SILESIA, UNIVERSITY OF TOKYO,
     UNIVERSITY OF ZURICH, WASEDA UNIVERSITY, YALE UNIVERSITY

  GAMESS SOFTWARE MANAGEMENT TEAM FOR THIS RELEASE:
     MARK S. GORDON (TEAM LEAD),
     BRETT BODE (SENIOR ADVISOR),
     GIUSEPPE BARCA,
     COLLEEN BERTONI,
     KRISTOPHER KEIPERT (ADVISOR),
     SAROM S. LEANG (DEVELOPMENT LEAD),
     BUU PHAM,
     JORGE LUIS GALVEZ VALLEJO (WEBSITE ADMINISTRATOR),
     PENG XU


 PARALLEL VERSION RUNNING ON       16 PROCESSORS IN        1 NODES.

 EXECUTION OF GAMESS BEGUN 14:31:59 25-DEC-2023    

            ECHO OF THE FIRST FEW INPUT CARDS -
 INPUT CARD> $CONTRL SCFTYP=UHF RUNTYP=EDA dfttyp=B3LYP ispher=1 icharg=0 mult=1 $END       
 INPUT CARD> $SYSTEM  mwords=150 memddi=150 $END                                            
 INPUT CARD> $BASIS gbasis=accd $END                                                        
 INPUT CARD> $LMOEDA MATOM(1)=5 5 MCHARG(1)=0 0 MMULT(1)=2 -2 edatyp=gks $end               
 INPUT CARD> $scf DIIS=.TRUE. ETHRSH=2.0 SWDIIS=0.005 $end                                  
 INPUT CARD> $data                                                                          
 INPUT CARD> EDA calculation with XEDA 1.0                                                  
 INPUT CARD> c1                                                                             
 INPUT CARD>C   6   -0.1853959278    0.9034410188   -1.3627982960                           
 INPUT CARD>C   6   -0.1853959278    0.9034410188   -0.0060262206                           
 INPUT CARD>H   1   -0.1975634986    1.8610756407    0.5289564967                           
 INPUT CARD>H   1   -0.2158725285   -0.0259336816   -1.9390324683                           
 INPUT CARD>H   1   -0.1672525215    1.8314747273   -1.9388827550                           
 INPUT CARD>C   6   -0.1853959278   -0.3235341392    0.8435708766                           
 INPUT CARD>C   6    0.5316329011   -1.4449629050    0.5807026063                           
 INPUT CARD>H   1    1.1995642615   -1.5125546379   -0.2830187240                           
 INPUT CARD>H   1    0.4826826761   -2.3246827163    1.2265684326                           
 INPUT CARD>H   1   -0.8091876100   -0.2864228727    1.7451876749                           
 INPUT CARD> $end                                                                           
  150000000 WORDS OF MEMORY AVAILABLE

     BASIS OPTIONS
     -------------
     GBASIS=ACCD         IGAUSS=       0      POLAR=NONE    
     NDFUNC=       0     NFFUNC=       0     DIFFSP=       F
     NPFUNC=       0      DIFFS=       F     BASNAM=        


     RUN TITLE
     ---------
  EDA calculation with XEDA 1.0                                                  

 THE POINT GROUP OF THE MOLECULE IS C1      
 THE ORDER OF THE PRINCIPAL AXIS IS     0

 ATOM      ATOMIC                      COORDINATES (BOHR)
           CHARGE         X                   Y                   Z
 C           6.0    -0.3503475028        1.7072559716       -2.5753153560
 C           6.0    -0.3503475028        1.7072559716       -0.0113879057
 H           1.0    -0.3733408775        3.5169230033        0.9995828382
 H           1.0    -0.4079399271       -0.0490075521       -3.6642400464
 H           1.0    -0.3160614364        3.4609853880       -3.6639571293
 C           6.0    -0.3503475028       -0.6113908708        1.5941178080
 C           6.0     1.0046405091       -2.7305839529        1.0973688063
 H           1.0     2.2668477589       -2.8583138071       -0.5348278378
 H           1.0     0.9121379968       -4.3930133422        2.3178782428
 H           1.0    -1.5291428556       -0.5412607460        3.2979265027

          INTERNUCLEAR DISTANCES (ANGS.)
          ------------------------------

                1 C          2 C          3 H          4 H          5 H     

   1 C       0.0000000    1.3567721 *  2.1203651 *  1.0939433 *  1.0924509 *
   2 C       1.3567721 *  0.0000000    1.0970044 *  2.1450360 *  2.1441805 *
   3 H       2.1203651 *  1.0970044 *  0.0000000    3.1067843    2.4682029 *
   4 H       1.0939433 *  2.1450360 *  3.1067843    0.0000000    1.8580447 *
   5 H       1.0924509 *  2.1441805 *  2.4682029 *  1.8580447 *  0.0000000  
   6 C       2.5245857 *  1.4924085 *  2.2071815 *  2.7986383 *  3.5194375  
   7 C       3.1315056    2.5245558 *  3.3858966    2.9868835 *  4.1918725  
   8 H       2.9868166 *  2.7985487 *  3.7406752    2.6374011 *  3.9739912  
   9 H       4.1918888    3.5194320    4.2976703    3.9740729    5.2646122  
  10 H       3.3859222    2.2071797 *  2.5426467 *  3.7407694    4.2976675  

                6 C          7 C          8 H          9 H         10 H     

   1 C       2.5245857 *  3.1315056    2.9868166 *  4.1918888    3.3859222  
   2 C       1.4924085 *  2.5245558 *  2.7985487 *  3.5194320    2.2071797 *
   3 H       2.2071815 *  3.3858966    3.7406752    4.2976703    2.5426467 *
   4 H       2.7986383 *  2.9868835 *  2.6374011 *  3.9740729    3.7407694  
   5 H       3.5194375    4.1918725    3.9739912    5.2646122    4.2976675  
   6 C       0.0000000    1.3567728 *  2.1450148 *  2.1442042 *  1.0969987 *
   7 C       1.3567728 *  0.0000000    1.0939449 *  1.0924494 *  2.1203868 *
   8 H       2.1450148 *  1.0939449 *  0.0000000    1.8580432 *  3.1067836  
   9 H       2.1442042 *  1.0924494 *  1.8580432 *  0.0000000    2.4682783 *
  10 H       1.0969987 *  2.1203868 *  3.1067836    2.4682783 *  0.0000000  

  * ... LESS THAN  3.000


     ATOMIC BASIS SET
     ----------------
 THE CONTRACTED PRIMITIVE FUNCTIONS HAVE BEEN UNNORMALIZED
 THE CONTRACTED BASIS FUNCTIONS ARE NOW NORMALIZED TO UNITY

  SHELL TYPE  PRIMITIVE        EXPONENT          CONTRACTION COEFFICIENT(S)

 C         

      1   S       1          6665.0000000    0.000691583963
      1   S       2          1000.0000000    0.005325796153
      1   S       3           228.0000000    0.027060721042
      1   S       4            64.7100000    0.101656846141
      1   S       5            21.0600000    0.274574823617
      1   S       6             7.4950000    0.448294318924
      1   S       7             2.7970000    0.284902610715
      1   S       8             0.5215000    0.015194859206

      2   S       9          6665.0000000   -0.000293269653
      2   S      10          1000.0000000   -0.002318035474
      2   S      11           228.0000000   -0.011499786039
      2   S      12            64.7100000   -0.046826727010
      2   S      13            21.0600000   -0.128466168750
      2   S      14             7.4950000   -0.301266272463
      2   S      15             2.7970000   -0.255630702330
      2   S      16             0.5215000    1.093793361012

      3   S      17             0.1596000    1.000000000000

      4   P      18             9.4390000    0.056979251590
      4   P      19             2.0020000    0.313207211501
      4   P      20             0.5456000    0.760376741738

      5   P      21             0.1517000    1.000000000000

      6   D      22             0.5500000    1.000000000000

      7   S      23             0.0469000    1.000000000000

      8   P      24             0.0404100    1.000000000000

      9   D      25             0.1510000    1.000000000000

 C         

     10   S      26          6665.0000000    0.000691583963
     10   S      27          1000.0000000    0.005325796153
     10   S      28           228.0000000    0.027060721042
     10   S      29            64.7100000    0.101656846141
     10   S      30            21.0600000    0.274574823617
     10   S      31             7.4950000    0.448294318924
     10   S      32             2.7970000    0.284902610715
     10   S      33             0.5215000    0.015194859206

     11   S      34          6665.0000000   -0.000293269653
     11   S      35          1000.0000000   -0.002318035474
     11   S      36           228.0000000   -0.011499786039
     11   S      37            64.7100000   -0.046826727010
     11   S      38            21.0600000   -0.128466168750
     11   S      39             7.4950000   -0.301266272463
     11   S      40             2.7970000   -0.255630702330
     11   S      41             0.5215000    1.093793361012

     12   S      42             0.1596000    1.000000000000

     13   P      43             9.4390000    0.056979251590
     13   P      44             2.0020000    0.313207211501
     13   P      45             0.5456000    0.760376741738

     14   P      46             0.1517000    1.000000000000

     15   D      47             0.5500000    1.000000000000

     16   S      48             0.0469000    1.000000000000

     17   P      49             0.0404100    1.000000000000

     18   D      50             0.1510000    1.000000000000

 H         

     19   S      51            13.0100000    0.033498726390
     19   S      52             1.9620000    0.234800801174
     19   S      53             0.4446000    0.813682957883

     20   S      54             0.1220000    1.000000000000

     21   P      55             0.7270000    1.000000000000

     22   S      56             0.0297400    1.000000000000

     23   P      57             0.1410000    1.000000000000

 H         

     24   S      58            13.0100000    0.033498726390
     24   S      59             1.9620000    0.234800801174
     24   S      60             0.4446000    0.813682957883

     25   S      61             0.1220000    1.000000000000

     26   P      62             0.7270000    1.000000000000

     27   S      63             0.0297400    1.000000000000

     28   P      64             0.1410000    1.000000000000

 H         

     29   S      65            13.0100000    0.033498726390
     29   S      66             1.9620000    0.234800801174
     29   S      67             0.4446000    0.813682957883

     30   S      68             0.1220000    1.000000000000

     31   P      69             0.7270000    1.000000000000

     32   S      70             0.0297400    1.000000000000

     33   P      71             0.1410000    1.000000000000

 C         

     34   S      72          6665.0000000    0.000691583963
     34   S      73          1000.0000000    0.005325796153
     34   S      74           228.0000000    0.027060721042
     34   S      75            64.7100000    0.101656846141
     34   S      76            21.0600000    0.274574823617
     34   S      77             7.4950000    0.448294318924
     34   S      78             2.7970000    0.284902610715
     34   S      79             0.5215000    0.015194859206

     35   S      80          6665.0000000   -0.000293269653
     35   S      81          1000.0000000   -0.002318035474
     35   S      82           228.0000000   -0.011499786039
     35   S      83            64.7100000   -0.046826727010
     35   S      84            21.0600000   -0.128466168750
     35   S      85             7.4950000   -0.301266272463
     35   S      86             2.7970000   -0.255630702330
     35   S      87             0.5215000    1.093793361012

     36   S      88             0.1596000    1.000000000000

     37   P      89             9.4390000    0.056979251590
     37   P      90             2.0020000    0.313207211501
     37   P      91             0.5456000    0.760376741738

     38   P      92             0.1517000    1.000000000000

     39   D      93             0.5500000    1.000000000000

     40   S      94             0.0469000    1.000000000000

     41   P      95             0.0404100    1.000000000000

     42   D      96             0.1510000    1.000000000000

 C         

     43   S      97          6665.0000000    0.000691583963
     43   S      98          1000.0000000    0.005325796153
     43   S      99           228.0000000    0.027060721042
     43   S     100            64.7100000    0.101656846141
     43   S     101            21.0600000    0.274574823617
     43   S     102             7.4950000    0.448294318924
     43   S     103             2.7970000    0.284902610715
     43   S     104             0.5215000    0.015194859206

     44   S     105          6665.0000000   -0.000293269653
     44   S     106          1000.0000000   -0.002318035474
     44   S     107           228.0000000   -0.011499786039
     44   S     108            64.7100000   -0.046826727010
     44   S     109            21.0600000   -0.128466168750
     44   S     110             7.4950000   -0.301266272463
     44   S     111             2.7970000   -0.255630702330
     44   S     112             0.5215000    1.093793361012

     45   S     113             0.1596000    1.000000000000

     46   P     114             9.4390000    0.056979251590
     46   P     115             2.0020000    0.313207211501
     46   P     116             0.5456000    0.760376741738

     47   P     117             0.1517000    1.000000000000

     48   D     118             0.5500000    1.000000000000

     49   S     119             0.0469000    1.000000000000

     50   P     120             0.0404100    1.000000000000

     51   D     121             0.1510000    1.000000000000

 H         

     52   S     122            13.0100000    0.033498726390
     52   S     123             1.9620000    0.234800801174
     52   S     124             0.4446000    0.813682957883

     53   S     125             0.1220000    1.000000000000

     54   P     126             0.7270000    1.000000000000

     55   S     127             0.0297400    1.000000000000

     56   P     128             0.1410000    1.000000000000

 H         

     57   S     129            13.0100000    0.033498726390
     57   S     130             1.9620000    0.234800801174
     57   S     131             0.4446000    0.813682957883

     58   S     132             0.1220000    1.000000000000

     59   P     133             0.7270000    1.000000000000

     60   S     134             0.0297400    1.000000000000

     61   P     135             0.1410000    1.000000000000

 H         

     62   S     136            13.0100000    0.033498726390
     62   S     137             1.9620000    0.234800801174
     62   S     138             0.4446000    0.813682957883

     63   S     139             0.1220000    1.000000000000

     64   P     140             0.7270000    1.000000000000

     65   S     141             0.0297400    1.000000000000

     66   P     142             0.1410000    1.000000000000

 TOTAL NUMBER OF BASIS SET SHELLS             =   66
 NUMBER OF CARTESIAN GAUSSIAN BASIS FUNCTIONS =  154
 NOTE: THIS RUN WILL RESTRICT THE MO VARIATION SPACE TO SPHERICAL HARMONICS.
 THE NUMBER OF ORBITALS KEPT IN THE VARIATIONAL SPACE WILL BE PRINTED LATER.
 NUMBER OF ELECTRONS                          =   30
 CHARGE OF MOLECULE                           =    0
 SPIN MULTIPLICITY                            =    1
 NUMBER OF OCCUPIED ORBITALS (ALPHA)          =   15
 NUMBER OF OCCUPIED ORBITALS (BETA )          =   15
 TOTAL NUMBER OF ATOMS                        =   10
 THE NUCLEAR REPULSION ENERGY IS      103.4556841968

 SELECTED MURRAY-HANDY-LAMING RADIAL GRID

 LEGACY BECKE'S FUZZY CELL METHOD

 SELECTED ORIGINAL BECKE'S PARTITION FUNCTION

     LEBEDEV GRID-BASED DFT OPTIONS
     ------------------------------
     DFTTYP=B3LYP   
     NRAD  =      96     NLEB  =     302
     NRAD0 =      24     NLEB0 =     110
     SWOFF =    5.00E-03 (PURE SCF -> DFT)
     SWITCH=    3.00E-04 (COARSE -> TIGHT GRID)
     THRESH=    0.00E+00 GTHRE=    1.00E+00

 GRIMME'S EMPIRICAL DISPERSION CORRECTION= F

     $CONTRL OPTIONS
     ---------------
 SCFTYP=UHF          RUNTYP=LMOEDA       EXETYP=RUN     
 MPLEVL=       0     CITYP =NONE         CCTYP =NONE         VBTYP =NONE    
 DFTTYP=B3LYP        TDDFT =NONE    
 MULT  =       1     ICHARG=       0     NZVAR =       0     COORD =UNIQUE  
 PP    =NONE         RELWFN=NONE         LOCAL =NONE         NUMGRD=       F
 ISPHER=       1     NOSYM =       0     MAXIT =      30     UNITS =ANGS    
 PLTORB=       F     MOLPLT=       F     AIMPAC=       F     FRIEND=        
 NPRINT=       7     IREST =       0     GEOM  =INPUT   
 NORMF =       0     NORMP =       0     ITOL  =      20     ICUT  =       9
 INTTYP=BEST         GRDTYP=BEST         QMTTOL= 1.0E-06

     $SYSTEM OPTIONS
     ---------------
  REPLICATED MEMORY=   150000000 WORDS (ON EVERY NODE).
 DISTRIBUTED MEMDDI=         150 MILLION WORDS IN AGGREGATE,
 MEMDDI DISTRIBUTED OVER  16 PROCESSORS IS     9375000 WORDS/PROCESSOR.
 TOTAL MEMORY REQUESTED ON EACH PROCESSOR=   159375000 WORDS.
 TIMLIM=      525600.00 MINUTES, OR     365.0 DAYS.
 PARALL= T  BALTYP=  DLB     KDIAG=    0  COREFL= F
 MXSEQ2=     300 MXSEQ3=     150  mem10=         0  mem22=         0

 Using Gaussians for PCM contribution to MEP, params: 0.10000E+01 0.10000E-07

          ----------------
          PROPERTIES INPUT
          ----------------

     MOMENTS            FIELD           POTENTIAL          DENSITY
 IEMOM =       1   IEFLD =       0   IEPOT =       0   IEDEN =       0
 WHERE =COMASS     WHERE =NUCLEI     WHERE =NUCLEI     WHERE =NUCLEI  
 OUTPUT=BOTH       OUTPUT=BOTH       OUTPUT=BOTH       OUTPUT=BOTH    
 IEMINT=       0   IEFINT=       0                     IEDINT=       0
                                                       MORB  =       0
          EXTRAPOLATION IN EFFECT
          DIIS IN EFFECT
          DIIS or SOSCF will be reset if energy rises
 ORBITAL PRINTING OPTION: NPREO=     1   154     2     1

     -------------------------------
     INTEGRAL TRANSFORMATION OPTIONS
     -------------------------------
     NWORD  =            0
     CUTOFF = 1.0E-09     MPTRAN =       0
     DIRTRF =       F     AOINTS =DUP     

          -----------------------------
          LOCALIZATION INPUT PARAMETERS
          -----------------------------
           LOCAL=RUEDNBRG      NOUTA=       0
          PRTLOC=       F      NOUTB=       0
          MAXLOC=     250     CVGLOC=1.00E-06
           FCORE=       F     SYMLOC=       F
          MOIDON=       F     EDCOMP=       F
          DIPDCM=       F      NPROT=       0
          QADDCM=       F     DEPRNT=       F
          POLNUM=       F     ORIENT=       F
          POLDYN=       F      VMTOL=1.50E-01
          NPRDTL=       2     IBOYAL=       1

          ----------------------
          INTEGRAL INPUT OPTIONS
          ----------------------
 NOPK  =       1 NORDER=       0 SCHWRZ=       T

     ------------------------------------------
     THE POINT GROUP IS C1 , NAXIS= 0, ORDER= 1
     ------------------------------------------

 -- VARIATIONAL SPACE WILL BE RESTRICTED TO PURE SPHERICAL HARMONICS ONLY --
 AFTER EXCLUDING CONTAMINANT COMBINATIONS FROM THE CARTESIAN GAUSSIAN BASIS
 SET, THE NUMBER OF SPHERICAL HARMONICS KEPT IN THE VARIATION SPACE IS  146

     DIMENSIONS OF THE SYMMETRY SUBSPACES ARE
 A   =  146

 ..... DONE SETTING UP THE RUN .....
 CPU     0: STEP CPU TIME=     0.03 TOTAL CPU TIME=          0.0 (      0.0 MIN)
 TOTAL WALL CLOCK TIME=          0.0 SECONDS, CPU UTILIZATION IS    82.08%

          --------------
          GKSEDA OPTIONS
          --------------
          NMOL  =       2          EDATYP=GKS     
          SUPBAS=       T          RDVECM=       F          ITRTN =       T

 *******************
 GKSEDA IS BEGINNING
 *******************

 NMOL =  2

 MONOMER     ATOM   CHARGE ELECTRON MULTIPLE
 -------------------------------------------
       1        5        0       15        2
       2        5        0       15       -2
 -------------------------------------------

 SAVING MOL INFO REQUIRES    598670 WORDS OF MEMORY.

          ********************
          1 ELECTRON INTEGRALS
          ********************
 ...... END OF ONE-ELECTRON INTEGRALS ......
 CPU     0: STEP CPU TIME=     0.01 TOTAL CPU TIME=          0.0 (      0.0 MIN)
 TOTAL WALL CLOCK TIME=          0.0 SECONDS, CPU UTILIZATION IS    83.79%

          -------------
          GUESS OPTIONS
          -------------
          GUESS =HUCKEL            NORB  =       0          NORDER=       0
          MIX   =       F          PRTMO =       F          PUNMO =       F
          TOLZ  = 1.0E-08          TOLE  = 1.0E-05
          SYMDEN=       F          PURIFY=       F

 INITIAL GUESS ORBITALS GENERATED BY HUCKEL   ROUTINE.
 HUCKEL GUESS REQUIRES    180842 WORDS.

 STATISTICS FOR GENERATION OF SYMMETRY ORBITAL -Q- MATRIX
 NUMBER OF CARTESIAN ATOMIC ORBITALS=        154
 NUMBER OF SPHERICAL CONTAMINANTS DROPPED=     8
 NUMBER OF LINEARLY DEPENDENT MOS DROPPED=     0
 TOTAL NUMBER OF MOS IN VARIATION SPACE=     146

 SYMMETRIES FOR INITIAL GUESS ORBITALS FOLLOW.  ALPHA SET(S).
    15 ORBITALS ARE OCCUPIED (    4 CORE ORBITALS).
     5=A        6=A        7=A        8=A        9=A       10=A       11=A   
    12=A       13=A       14=A       15=A       16=A       17=A       18=A   
    19=A       20=A       21=A       22=A       23=A       24=A       25=A   

 SYMMETRIES FOR INITIAL GUESS ORBITALS FOLLOW.   BETA SET(S).
    15 ORBITALS ARE OCCUPIED (    4 CORE ORBITALS).
     5=A        6=A        7=A        8=A        9=A       10=A       11=A   
    12=A       13=A       14=A       15=A       16=A       17=A       18=A   
    19=A       20=A       21=A       22=A       23=A       24=A       25=A   
 ...... END OF INITIAL ORBITAL SELECTION ......
 CPU     0: STEP CPU TIME=     0.01 TOTAL CPU TIME=          0.1 (      0.0 MIN)
 TOTAL WALL CLOCK TIME=          0.1 SECONDS, CPU UTILIZATION IS    87.67%

          -------------------------
          MONOMER  1 WITH OWN BASIS
          -------------------------

     ------------------------------------------
     THE POINT GROUP IS C1 , NAXIS= 0, ORDER= 1
     ------------------------------------------

 -- VARIATIONAL SPACE WILL BE RESTRICTED TO PURE SPHERICAL HARMONICS ONLY --
 AFTER EXCLUDING CONTAMINANT COMBINATIONS FROM THE CARTESIAN GAUSSIAN BASIS
 SET, THE NUMBER OF SPHERICAL HARMONICS KEPT IN THE VARIATION SPACE IS   73

     DIMENSIONS OF THE SYMMETRY SUBSPACES ARE
 A   =   73

          ********************
          1 ELECTRON INTEGRALS
          ********************
 ...... END OF ONE-ELECTRON INTEGRALS ......
 CPU     0: STEP CPU TIME=     0.01 TOTAL CPU TIME=          0.1 (      0.0 MIN)
 TOTAL WALL CLOCK TIME=          0.1 SECONDS, CPU UTILIZATION IS    88.48%

          -------------
          GUESS OPTIONS
          -------------
          GUESS =HUCKEL            NORB  =       0          NORDER=       0
          MIX   =       F          PRTMO =       F          PUNMO =       F
          TOLZ  = 1.0E-08          TOLE  = 1.0E-05
          SYMDEN=       F          PURIFY=       F

 INITIAL GUESS ORBITALS GENERATED BY HUCKEL   ROUTINE.
 HUCKEL GUESS REQUIRES     47410 WORDS.

 STATISTICS FOR GENERATION OF SYMMETRY ORBITAL -Q- MATRIX
 NUMBER OF CARTESIAN ATOMIC ORBITALS=         77
 NUMBER OF SPHERICAL CONTAMINANTS DROPPED=     4
 NUMBER OF LINEARLY DEPENDENT MOS DROPPED=     0
 TOTAL NUMBER OF MOS IN VARIATION SPACE=      73

 SYMMETRIES FOR INITIAL GUESS ORBITALS FOLLOW.  ALPHA SET(S).
     8 ORBITALS ARE OCCUPIED (    2 CORE ORBITALS).
     3=A        4=A        5=A        6=A        7=A        8=A        9=A   
    10=A       11=A       12=A       13=A       14=A       15=A       16=A   
    17=A       18=A   

 SYMMETRIES FOR INITIAL GUESS ORBITALS FOLLOW.   BETA SET(S).
     7 ORBITALS ARE OCCUPIED (    2 CORE ORBITALS).
     3=A        4=A        5=A        6=A        7=A        8=A        9=A   
    10=A       11=A       12=A       13=A       14=A       15=A       16=A   
    17=A   
 ...... END OF INITIAL ORBITAL SELECTION ......
 CPU     0: STEP CPU TIME=     0.00 TOTAL CPU TIME=          0.1 (      0.0 MIN)
 TOTAL WALL CLOCK TIME=          0.1 SECONDS, CPU UTILIZATION IS    88.96%

                    ----------------------
                    AO INTEGRAL TECHNOLOGY
                    ----------------------
     S,P,L SHELL ROTATED AXIS INTEGRALS, REPROGRAMMED BY
        KAZUYA ISHIMURA (IMS) AND JOSE SIERRA (SYNSTAR).
     S,P,D,L SHELL ROTATED AXIS INTEGRALS PROGRAMMED BY
        KAZUYA ISHIMURA (INSTITUTE FOR MOLECULAR SCIENCE).
     S,P,D,F,G SHELL TO TOTAL QUARTET ANGULAR MOMENTUM SUM 5,
        ERIC PROGRAM BY GRAHAM FLETCHER (ELORET AND NASA ADVANCED
        SUPERCOMPUTING DIVISION, AMES RESEARCH CENTER).
     S,P,D,F,G,L SHELL GENERAL RYS QUADRATURE PROGRAMMED BY
        MICHEL DUPUIS (PACIFIC NORTHWEST NATIONAL LABORATORY).

          --------------------
          2 ELECTRON INTEGRALS
          --------------------

 THE -PK- OPTION IS OFF, THE INTEGRALS ARE NOT IN SUPERMATRIX FORM.
 STORING   15000 INTEGRALS/RECORD ON DISK, USING 12 BYTES/INTEGRAL.
 TWO ELECTRON INTEGRAL EVALUATION REQUIRES   90957 WORDS OF MEMORY.
 SCHWARZ INEQUALITY OVERHEAD:      3003 INTEGRALS, T=        0.00
 II,JST,KST,LST =  1  1  1  1 NREC =         1 INTLOC =    1
 II,JST,KST,LST =  2  1  1  1 NREC =         1 INTLOC =    1
 II,JST,KST,LST =  3  1  1  1 NREC =         1 INTLOC =    1
 II,JST,KST,LST =  4  1  1  1 NREC =         1 INTLOC =    1
 II,JST,KST,LST =  5  1  1  1 NREC =         1 INTLOC =    1
 II,JST,KST,LST =  6  1  1  1 NREC =         1 INTLOC =    1
 II,JST,KST,LST =  7  1  1  1 NREC =         1 INTLOC =    4
 II,JST,KST,LST =  8  1  1  1 NREC =         1 INTLOC =   77
 II,JST,KST,LST =  9  1  1  1 NREC =         1 INTLOC =   77
 II,JST,KST,LST = 10  1  1  1 NREC =         1 INTLOC =  158
 II,JST,KST,LST = 11  1  1  1 NREC =         1 INTLOC =  420
 II,JST,KST,LST = 12  1  1  1 NREC =         1 INTLOC =  420
 II,JST,KST,LST = 13  1  1  1 NREC =         1 INTLOC =  420
 II,JST,KST,LST = 14  1  1  1 NREC =         1 INTLOC =  420
 II,JST,KST,LST = 15  1  1  1 NREC =         1 INTLOC = 4193
 II,JST,KST,LST = 16  1  1  1 NREC =         1 INTLOC = 6107
 II,JST,KST,LST = 17  1  1  1 NREC =         1 INTLOC = 6107
 II,JST,KST,LST = 18  1  1  1 NREC =         1 INTLOC = 9598
 II,JST,KST,LST = 19  1  1  1 NREC =         1 INTLOC = 9598
 II,JST,KST,LST = 20  1  1  1 NREC =         2 INTLOC =  160
 II,JST,KST,LST = 21  1  1  1 NREC =         2 INTLOC =12730
 II,JST,KST,LST = 22  1  1  1 NREC =         3 INTLOC =  729
 II,JST,KST,LST = 23  1  1  1 NREC =         4 INTLOC = 4583
 II,JST,KST,LST = 24  1  1  1 NREC =         7 INTLOC = 1529
 II,JST,KST,LST = 25  1  1  1 NREC =         7 INTLOC = 1529
 II,JST,KST,LST = 26  1  1  1 NREC =         8 INTLOC = 2663
 II,JST,KST,LST = 27  1  1  1 NREC =         8 INTLOC =14753
 II,JST,KST,LST = 28  1  1  1 NREC =        10 INTLOC = 7155
 II,JST,KST,LST = 29  1  1  1 NREC =        12 INTLOC = 6806
 II,JST,KST,LST = 30  1  1  1 NREC =        13 INTLOC = 7324
 II,JST,KST,LST = 31  1  1  1 NREC =        14 INTLOC =10221
 II,JST,KST,LST = 32  1  1  1 NREC =        15 INTLOC =14542
 II,JST,KST,LST = 33  1  1  1 NREC =        17 INTLOC =  541
 SCHWARZ INEQUALITY TEST SKIPPED           0 INTEGRAL BLOCKS.
 TOTAL NUMBER OF NONZERO TWO-ELECTRON INTEGRALS =             3900412
        267 INTEGRAL RECORDS WERE STORED ON DISK FILE  8.
  ...... END OF TWO-ELECTRON INTEGRALS .....
 CPU     0: STEP CPU TIME=     0.03 TOTAL CPU TIME=          0.1 (      0.0 MIN)
 TOTAL WALL CLOCK TIME=          0.1 SECONDS, CPU UTILIZATION IS    89.43%

          ---------------------------
              U-B3LYP SCF CALCULATION
          ---------------------------

     NUCLEAR ENERGY =        27.8719489021
     MAXIT = 30     NPUNCH=  2     MULT=  2
     EXTRAP=T  DAMP=F  SHIFT=F  RSTRCT=F  DIIS=T  SOSCF=T
         DENSITY MATRIX CONVERGENCE THRESHOLD=  1.00E-05
     COARSE -> FINE DFT GRID SWITCH THRESHOLD=  3.00E-04 (SWITCH IN $DFT)
                   HF -> DFT SWITCH THRESHOLD=  5.00E-03 (SWOFF IN $DFT)
     SOSCF WILL OPTIMIZE     520 ALPHA AND     462 BETA ROTATION ANGLES.
     SOGTOL= 2.500E-01
     MEMORY REQUIRED FOR UHF/ROHF ITERS=    298732 WORDS.

     EXCHANGE FUNCTIONAL   =B88&HFX   
     CORRELATION FUNCTIONAL=LYP88&VWN5
     DFT THRESHOLD         =.690E-08
     GRID CHANGE THRESHOLD =.300E-03
 FOR AN EULER-MACLAURIN QUADRATURE USING  96 RADIAL POINTS:
 SMALLEST GAUSSIAN PRIMITIVE EXPONENT=        0.0297400000 OF TYPE -S-
 ON ATOM NUMBER   3 HAS RADIAL NORMALIZATION=  1.000000
  LARGEST GAUSSIAN PRIMITIVE EXPONENT=     6665.0000000000 OF TYPE -S-
 ON ATOM NUMBER   1 HAS RADIAL NORMALIZATION=  1.000000
 DFT IS SWITCHED OFF, PERFORMING PURE SCF UNTIL SWOFF THRESHOLD IS REACHED.

 ITER EX      TOTAL ENERGY        E CHANGE  DENSITY CHANGE    DIIS ERROR
          * * *   INITIATING DIIS PROCEDURE   * * *
   1  0      -77.1744596735   -77.1744596735   0.500497216   0.356767408
   2  1      -77.3685283896    -0.1940687162   0.154274965   0.054126443
   3  2      -77.3845667361    -0.0160383464   0.031203192   0.025996107
   4  3      -77.3889784421    -0.0044117061   0.022143653   0.011245513
   5  4      -77.3903688437    -0.0013904016   0.012925040   0.008568308
   6  5      -77.3910193941    -0.0006505504   0.024407208   0.008566705
   7  6      -77.3920881351    -0.0010687410   0.063986794   0.008320953
   8  7      -77.3944617373    -0.0023736022   0.112941666   0.006482267
   9  8      -77.3960251329    -0.0015633956   0.069128452   0.002104074
  10  9      -77.3955890749     0.0004360580   0.043015670   0.004156378
  11 10      -77.3961018205    -0.0005127457   0.007226431   0.000738756
  12 11      -77.3961168771    -0.0000150566   0.000638921   0.000099977
 CONVERGED TO SWOFF, SO DFT CALCULATION IS NOW SWITCHED ON.
          * * *   INITIATING DIIS PROCEDURE   * * *
  13 12      -77.8299189062    -0.4338020291   0.394321786   0.062269170
  14 13      -77.8465206097    -0.0166017035   0.062702161   0.016733094
  15 14      -77.8492032310    -0.0026826213   0.024654295   0.011959959
  16 15      -77.8506606503    -0.0014574193   0.050584880   0.007376866
  17 16      -77.8516415388    -0.0009808884   0.009209245   0.003439103
  18 17      -77.8517250437    -0.0000835049   0.006021890   0.001410835
  19 18      -77.8517449356    -0.0000198919   0.002032322   0.000279149
         SWDIIS THRESHOLD HAS BEEN REACHED: SWITCHING DIIS OFF.
          ---------------START SECOND ORDER SCF---------------
  20 19      -77.8517461014    -0.0000011658   0.000136761   0.000022012
  21 20      -77.8517461142    -0.0000000128   0.000156212   0.000023132
  22 21      -77.8517461148    -0.0000000006   0.000065851   0.000022005
  23 22      -77.8517461192    -0.0000000044   0.000008672   0.000002401
  24 23      -77.8517461194    -0.0000000001   0.000011951   0.000001916

          ----------------
          ENERGY CONVERGED
          ----------------
     TIME TO FORM FOCK OPERATORS=       1.2 SECONDS (       0.1 SEC/ITER)
     TIME TO SOLVE SCF EQUATIONS=       0.1 SECONDS (       0.0 SEC/ITER)

 FINAL U-B3LYP ENERGY IS      -77.8517461194 AFTER  24 ITERATIONS
 DFT EXCHANGE + CORRELATION ENERGY =        -9.5247469477
 TOTAL ELECTRON NUMBER             =        14.9999932167

          --------------------
          SPIN SZ   =    0.500
          S-SQUARED =    0.764
          --------------------

  ----- ALPHA SET ----- 

          ------------
          EIGENVECTORS
          ------------

                      1          2          3          4          5
                  -10.2292   -10.2019    -0.7670    -0.5781    -0.4645
                     A          A          A          A          A   
    1  C  1  S    0.012080   1.009648  -0.019651   0.011330  -0.002213
    2  C  1  S   -0.001521   0.022153   0.316243  -0.227275   0.000662
    3  C  1  S    0.040176  -0.073312   0.096180  -0.323825  -0.033733
    4  C  1  X   -0.000016  -0.000004  -0.000112   0.000908   0.006463
    5  C  1  Y   -0.000025  -0.000005   0.007924   0.031379   0.341387
    6  C  1  Z   -0.001003  -0.000351   0.110598   0.207183  -0.209119
    7  C  1  X    0.000127   0.000073   0.000286  -0.000483  -0.000911
    8  C  1  Y   -0.001313  -0.000271   0.024014   0.027650  -0.016186
    9  C  1  Z    0.038680  -0.008929  -0.029127  -0.242083   0.040248
   10  C  1 XX    0.000213  -0.001625  -0.006307   0.001488  -0.001724
   11  C  1 YY    0.000860   0.000837  -0.007560  -0.011297   0.008520
   12  C  1 ZZ   -0.001073   0.000788   0.013868   0.009809  -0.006796
   13  C  1 XY    0.000025   0.000072  -0.000067  -0.000372   0.000163
   14  C  1 XZ    0.000007   0.000016   0.000010  -0.000184  -0.000329
   15  C  1 YZ    0.000471   0.000053   0.000217   0.002360  -0.006049
   16  C  1  S    0.015226  -0.033906   0.016451   0.138054  -0.060603
   17  C  1  X    0.000043   0.000032  -0.000271  -0.000110  -0.001510
   18  C  1  Y    0.000756   0.000809  -0.003686   0.008998  -0.058679
   19  C  1  Z    0.006201  -0.003685  -0.001964   0.011701  -0.008945
   20  C  1 XX   -0.002135   0.004867   0.006297  -0.007147  -0.006390
   21  C  1 YY   -0.004489   0.001495  -0.008183   0.105865  -0.044634
   22  C  1 ZZ    0.006624  -0.006362   0.001885  -0.098718   0.051024
   23  C  1 XY   -0.000052  -0.000083  -0.001001   0.002430  -0.001485
   24  C  1 XZ   -0.000064  -0.000059   0.000639   0.000260   0.002881
   25  C  1 YZ   -0.003109  -0.001077   0.024795   0.019805   0.104874
   26  C  2  S    1.009987  -0.013656  -0.017106  -0.006429  -0.000332
   27  C  2  S    0.022726  -0.001366   0.307141   0.268910  -0.070610
   28  C  2  S   -0.089928   0.024461   0.252637   0.492669  -0.241639
   29  C  2  X   -0.000032  -0.000006  -0.000802  -0.001682   0.001674
   30  C  2  Y    0.000904   0.000107   0.024591   0.097815   0.255625
   31  C  2  Z   -0.000219   0.000910  -0.128160   0.118842   0.162837
   32  C  2  X    0.000119   0.000064  -0.000249   0.000120  -0.000273
   33  C  2  Y   -0.003275  -0.001152  -0.057794  -0.093608   0.008800
   34  C  2  Z    0.030767  -0.016849  -0.091045  -0.220192   0.063655
   35  C  2 XX   -0.000851   0.000672  -0.011425  -0.001417  -0.000477
   36  C  2 YY    0.000525   0.000641  -0.003931   0.009841   0.005754
   37  C  2 ZZ    0.000326  -0.001313   0.015356  -0.008423  -0.005276
   38  C  2 XY   -0.000003  -0.000006   0.000305   0.000082  -0.000267
   39  C  2 XZ   -0.000016   0.000004  -0.000090  -0.000275  -0.000356
   40  C  2 YZ    0.000883   0.000042  -0.006153  -0.001644  -0.009702
   41  C  2  S   -0.028980   0.019759  -0.018945  -0.118096   0.022453
   42  C  2  X   -0.000003   0.000007   0.000240   0.000156   0.000536
   43  C  2  Y   -0.001406  -0.001328  -0.000353  -0.026889   0.018144
   44  C  2  Z    0.004242  -0.005749   0.006577   0.004867  -0.013335
   45  C  2 XX    0.005987  -0.001054  -0.006773   0.006274   0.001272
   46  C  2 YY    0.004280  -0.001760  -0.017868  -0.059912  -0.008184
   47  C  2 ZZ   -0.010267   0.002813   0.024640   0.053638   0.006913
   48  C  2 XY   -0.000012  -0.000014   0.000826  -0.000041   0.000533
   49  C  2 XZ    0.000012  -0.000018   0.000433  -0.000039   0.000798
   50  C  2 YZ   -0.004230  -0.001156   0.008743  -0.021752   0.013363
   51  H  3  S   -0.000657  -0.000105   0.124492   0.258655   0.194142
   52  H  3  S    0.021386   0.007216   0.065166   0.272321   0.107683
   53  H  3  X   -0.000019   0.000006   0.000126   0.000335   0.000308
   54  H  3  Y    0.001719  -0.000004  -0.012801  -0.016853  -0.005911
   55  H  3  Z    0.000728   0.000181  -0.011261  -0.009913  -0.005240
   56  H  3  S    0.001293   0.001921   0.003622   0.025947   0.010379
   57  H  3  X    0.000113   0.000039  -0.000196   0.001482  -0.000133
   58  H  3  Y   -0.007716  -0.002232  -0.007765  -0.042468  -0.011735
   59  H  3  Z   -0.002021  -0.000912  -0.017512  -0.029398  -0.010514
   60  H  4  S   -0.000344  -0.000855   0.116631  -0.229283  -0.141467
   61  H  4  S    0.017770   0.021912  -0.010730  -0.218262  -0.198483
   62  H  4  X   -0.000006  -0.000053   0.000451  -0.000643  -0.000165
   63  H  4  Y   -0.000210  -0.001548   0.014345  -0.016894   0.000617
   64  H  4  Z   -0.000615  -0.001020   0.012538  -0.005402  -0.009985
   65  H  4  S    0.001762   0.001999   0.000017  -0.012846  -0.041568
   66  H  4  X    0.000159   0.000232  -0.000440  -0.001492  -0.001932
   67  H  4  Y    0.004833   0.006786  -0.009294  -0.020659  -0.049462
   68  H  4  Z    0.002457   0.003034   0.008821  -0.034152   0.011235
   69  H  5  S   -0.000193  -0.000914   0.126608  -0.203088   0.340966
   70  H  5  S    0.009353   0.019014   0.015260  -0.225322   0.435459
   71  H  5  X   -0.000007   0.000024  -0.000282   0.000373  -0.000221
   72  H  5  Y   -0.000076   0.001519  -0.014517   0.016644  -0.010220
   73  H  5  Z   -0.000422  -0.000944   0.011285  -0.004922   0.005086
   74  H  5  S    0.001706   0.001145   0.002184  -0.013834   0.045462
   75  H  5  X   -0.000069  -0.000125   0.000473   0.000742  -0.000815
   76  H  5  Y   -0.002369  -0.006011   0.000490   0.020118  -0.072713
   77  H  5  Z    0.001979   0.002956  -0.001942  -0.053744   0.040777

                      6          7          8          9         10
                   -0.4137    -0.2851    -0.2735    -0.0197    -0.0019
                     A          A          A          A          A   
    1  C  1  S    0.000003  -0.000100   0.000572   0.000077  -0.002976
    2  C  1  S   -0.036597  -0.005836   0.050144   0.002876   0.084582
    3  C  1  S   -0.169538  -0.002546   0.023525   0.006298   0.345529
    4  C  1  X   -0.010994   0.389831   0.040230   0.403739  -0.000555
    5  C  1  Y   -0.254526   0.003315  -0.135472  -0.011323   0.029610
    6  C  1  Z   -0.320122  -0.018107   0.112250  -0.000650  -0.096086
    7  C  1  X   -0.000351   0.214519   0.025157   0.338757  -0.001486
    8  C  1  Y    0.060743  -0.009802   0.032084  -0.007931   0.041989
    9  C  1  Z   -0.091844   0.000652  -0.021371  -0.000170  -0.283544
   10  C  1 XX   -0.001151  -0.000017   0.000507   0.000059   0.000938
   11  C  1 YY    0.010573   0.000141  -0.000696  -0.000015  -0.002784
   12  C  1 ZZ   -0.009423  -0.000125   0.000189  -0.000044   0.001846
   13  C  1 XY    0.000384   0.000627   0.000132   0.000051  -0.000037
   14  C  1 XZ   -0.000134   0.021475   0.003144  -0.030076   0.000000
   15  C  1 YZ    0.013754  -0.004133   0.040239  -0.000250   0.001428
   16  C  1  S   -0.038454  -0.018604   0.156814  -0.000697   1.296252
   17  C  1  X    0.000805   0.028525   0.004101   0.562456   0.000965
   18  C  1  Y    0.051440  -0.002561   0.020031  -0.014989   0.037493
   19  C  1  Z   -0.014770  -0.005094   0.039847  -0.003942  -0.298423
   20  C  1 XX    0.000002   0.000705  -0.005657  -0.000373  -0.039345
   21  C  1 YY   -0.043852  -0.003990   0.029076   0.000151   0.024763
   22  C  1 ZZ    0.043850   0.003285  -0.023418   0.000222   0.014582
   23  C  1 XY   -0.002757   0.004461   0.000830  -0.003274   0.001639
   24  C  1 XZ   -0.001026   0.003837  -0.000720  -0.041815   0.001029
   25  C  1 YZ   -0.051938   0.002928  -0.034770   0.002923   0.026968
   26  C  2  S   -0.000867  -0.000046  -0.000765   0.000039  -0.002519
   27  C  2  S    0.031109   0.019008  -0.150601  -0.003751   0.056106
   28  C  2  S   -0.055261   0.037650  -0.311279  -0.008774   0.366353
   29  C  2  X   -0.007754   0.439390   0.055086  -0.411953  -0.000144
   30  C  2  Y    0.036357  -0.053621   0.470717   0.000216   0.043931
   31  C  2  Z    0.374605   0.036152  -0.254665  -0.003363   0.082525
   32  C  2  X   -0.001914   0.254217   0.034332  -0.348853  -0.001838
   33  C  2  Y   -0.065979  -0.025690   0.239652  -0.002489   0.099236
   34  C  2  Z    0.045826   0.027571  -0.221135  -0.001775  -0.007549
   35  C  2 XX   -0.001589   0.000173  -0.004811   0.000149  -0.001699
   36  C  2 YY    0.011079   0.000334   0.000115  -0.000023  -0.004884
   37  C  2 ZZ   -0.009490  -0.000507   0.004696  -0.000126   0.006583
   38  C  2 XY   -0.000066  -0.000468  -0.000595  -0.000084  -0.000036
   39  C  2 XZ    0.000274  -0.020320  -0.001918  -0.032104  -0.000027
   40  C  2 YZ    0.017699  -0.001518   0.020341   0.001239  -0.003622
   41  C  2  S   -0.014812   0.030563  -0.259947  -0.001400   0.872282
   42  C  2  X    0.000173   0.031173   0.004392  -0.514474  -0.001906
   43  C  2  Y   -0.035933  -0.002373   0.023410   0.005172   0.190580
   44  C  2  Z   -0.015129  -0.001260   0.007163  -0.004873   0.146113
   45  C  2 XX   -0.003897  -0.001173   0.006942   0.000473  -0.039490
   46  C  2 YY   -0.036926   0.002761  -0.023032  -0.000652  -0.012529
   47  C  2 ZZ    0.040823  -0.001589   0.016090   0.000179   0.052019
   48  C  2 XY    0.001327  -0.001291  -0.000393   0.008342  -0.000572
   49  C  2 XZ    0.000149  -0.007160  -0.000883  -0.037642   0.000152
   50  C  2 YZ   -0.017080   0.000836  -0.011769   0.002547   0.032992
   51  H  3  S    0.233115  -0.019871   0.195260   0.007533   0.005128
   52  H  3  S    0.277907  -0.025453   0.249060   0.007307  -0.358057
   53  H  3  X   -0.000063   0.015566   0.002134  -0.020920   0.000141
   54  H  3  Y   -0.009295  -0.000651   0.006696   0.000080  -0.010706
   55  H  3  Z    0.001090   0.002094  -0.015839  -0.000133  -0.001511
   56  H  3  S    0.036887  -0.002181   0.027642   0.009771  -0.897069
   57  H  3  X    0.000175   0.015251   0.002821  -0.053411  -0.000602
   58  H  3  Y   -0.038803   0.001842  -0.018023   0.002280   0.031696
   59  H  3  Z   -0.036083   0.003839  -0.028990   0.000555   0.032902
   60  H  4  S    0.324706  -0.012320   0.145084  -0.005121   0.006933
   61  H  4  S    0.391110  -0.016041   0.192981  -0.008022  -0.404730
   62  H  4  X    0.000209   0.014329   0.001613   0.021808   0.000279
   63  H  4  Y    0.009623  -0.000319  -0.000932  -0.000492   0.009649
   64  H  4  Z    0.003157  -0.000730   0.005097   0.000135   0.002061
   65  H  4  S    0.035986  -0.003336   0.039688  -0.013924  -0.638783
   66  H  4  X    0.001780   0.015539   0.002714   0.045374  -0.002513
   67  H  4  Y    0.054941  -0.003867   0.035394  -0.000796  -0.063674
   68  H  4  Z    0.052339  -0.000362   0.003464   0.001760  -0.017125
   69  H  5  S   -0.072689   0.021214  -0.209191   0.001344   0.003837
   70  H  5  S   -0.183772   0.034340  -0.336403   0.004128  -0.419189
   71  H  5  X   -0.000218   0.014271   0.001613   0.022651  -0.000227
   72  H  5  Y   -0.003165  -0.000390  -0.000102  -0.000523  -0.012240
   73  H  5  Z   -0.010877  -0.000173   0.000244  -0.000200   0.003417
   74  H  5  S   -0.043242   0.003123  -0.041743   0.002031  -1.138449
   75  H  5  X    0.001975   0.012620   0.002572   0.052805   0.001021
   76  H  5  Y    0.050978  -0.004570   0.043035  -0.001566   0.036240
   77  H  5  Z   -0.005880   0.002887  -0.023098  -0.000880  -0.024557

                     11         12         13         14         15
                    0.0149     0.0250     0.0627     0.0712     0.0791
                     A          A          A          A          A   
    1  C  1  S   -0.001275   0.002412   0.000746   0.007636   0.002887
    2  C  1  S    0.067465  -0.017222  -0.001149  -0.012330   0.043900
    3  C  1  S    0.186138  -0.129549  -0.041750  -0.388977   0.154633
    4  C  1  X   -0.003638  -0.004034   0.172185  -0.013080   0.001801
    5  C  1  Y   -0.067436  -0.118329  -0.002281   0.037576   0.011803
    6  C  1  Z   -0.036315   0.005050   0.000379   0.013739   0.054409
    7  C  1  X   -0.006800  -0.011565   0.199950  -0.011468  -0.000597
    8  C  1  Y   -0.171411  -0.371888  -0.002932   0.101993   0.010563
    9  C  1  Z   -0.273355   0.104884  -0.014263   0.034670  -0.044955
   10  C  1 XX    0.002795  -0.003169  -0.000398  -0.007372  -0.006847
   11  C  1 YY    0.004877  -0.001751   0.000108   0.001097  -0.010936
   12  C  1 ZZ   -0.007672   0.004920   0.000290   0.006275   0.017783
   13  C  1 XY   -0.000073   0.000011  -0.000832   0.000283  -0.000195
   14  C  1 XZ    0.000203  -0.000103   0.006091  -0.000488  -0.000058
   15  C  1 YZ   -0.004781  -0.003810  -0.000915  -0.010505   0.003083
   16  C  1  S    0.440339  -1.754805  -0.934694 -10.804006   1.467150
   17  C  1  X   -0.022244  -0.047127  -0.625200   0.063927  -0.019747
   18  C  1  Y   -0.204513  -1.939175   0.088660   0.430311  -0.491268
   19  C  1  Z   -0.531578  -0.373859  -0.395828  -4.811591  -1.579974
   20  C  1 XX   -0.010939   0.016698   0.007575   0.080724   0.023071
   21  C  1 YY    0.022289  -0.051458  -0.008249  -0.154229   0.016319
   22  C  1 ZZ   -0.011351   0.034760   0.000674   0.073505  -0.039390
   23  C  1 XY    0.000494  -0.000278   0.023407  -0.008214   0.001384
   24  C  1 XZ    0.000616   0.001620   0.040971  -0.002756   0.003589
   25  C  1 YZ   -0.043043   0.099376  -0.004911   0.004472   0.113294
   26  C  2  S   -0.001260  -0.000748  -0.000927  -0.005493   0.005520
   27  C  2  S   -0.072989   0.048171   0.002855   0.040746   0.030921
   28  C  2  S   -0.231537   0.246637   0.060802   0.427918   0.052179
   29  C  2  X    0.003007  -0.001147   0.127726  -0.010420   0.001745
   30  C  2  Y   -0.085090  -0.045985  -0.012027  -0.142067   0.060913
   31  C  2  Z   -0.027680   0.023427   0.001584   0.004842  -0.075551
   32  C  2  X    0.005322  -0.000981   0.145325  -0.017701   0.002014
   33  C  2  Y   -0.160303   0.094806   0.018690   0.116550  -0.141225
   34  C  2  Z   -0.248687   0.149161  -0.009126   0.045614  -0.062959
   35  C  2 XX   -0.003384   0.001474  -0.000047   0.001471  -0.009988
   36  C  2 YY   -0.001736   0.002157   0.000152  -0.000501  -0.013528
   37  C  2 ZZ    0.005121  -0.003631  -0.000106  -0.000969   0.023516
   38  C  2 XY   -0.000221  -0.000015   0.003944  -0.000181   0.000015
   39  C  2 XZ    0.000298   0.000302  -0.013359   0.001111  -0.000093
   40  C  2 YZ    0.008187   0.007537   0.000505   0.001909  -0.006731
   41  C  2  S   -0.500373   2.291562   0.968857  11.102509  -0.267273
   42  C  2  X    0.016910   0.013637  -0.592057   0.066097  -0.009707
   43  C  2  Y   -0.554864   1.023248  -0.009260   0.316224  -0.057913
   44  C  2  Z   -0.620973  -0.236795  -0.384395  -4.182189   1.865081
   45  C  2 XX    0.007848  -0.041104  -0.007484  -0.076156   0.063189
   46  C  2 YY   -0.063371   0.033363   0.006034   0.085058  -0.026878
   47  C  2 ZZ    0.055523   0.007741   0.001450  -0.008903  -0.036311
   48  C  2 XY    0.001096  -0.000161  -0.039577   0.001966  -0.001586
   49  C  2 XZ    0.000701  -0.000635  -0.015209   0.001347  -0.000088
   50  C  2 YZ   -0.072241   0.084773   0.001589   0.059882   0.082886
   51  H  3  S    0.016230   0.014963  -0.000444  -0.022842  -0.018176
   52  H  3  S    0.671013  -0.548841  -0.073748  -0.851532   0.212770
   53  H  3  X   -0.000028   0.000130  -0.005757   0.000382   0.000066
   54  H  3  Y    0.010302   0.000124   0.000922   0.009806  -0.008477
   55  H  3  Z    0.008176  -0.000462   0.000225   0.005307   0.007018
   56  H  3  S    2.553954  -1.433543   0.280657   3.484382  -0.143070
   57  H  3  X    0.001482  -0.002634   0.039122  -0.006647   0.001646
   58  H  3  Y   -0.083457   0.133682   0.013368   0.137536  -0.084986
   59  H  3  Z   -0.021042   0.003466   0.017127   0.139646  -0.096443
   60  H  4  S   -0.009477   0.012751  -0.001696  -0.023045  -0.023916
   61  H  4  S   -0.447998  -0.452297   0.040212   0.591359  -0.343315
   62  H  4  X    0.000110   0.000132  -0.003527   0.000319   0.000102
   63  H  4  Y    0.007584   0.002774   0.000201  -0.000189   0.003611
   64  H  4  Z    0.007155   0.002814  -0.000658  -0.010521  -0.011331
   65  H  4  S   -2.042588  -3.109069   0.023130   0.446741  -1.128967
   66  H  4  X   -0.002020  -0.001582   0.070385  -0.003423   0.000900
   67  H  4  Y   -0.060341  -0.052623  -0.001192   0.032427  -0.011309
   68  H  4  Z   -0.008235  -0.053298   0.006880   0.145476   0.029512
   69  H  5  S    0.002727  -0.002531   0.001599   0.025513  -0.038450
   70  H  5  S   -0.160095   0.860464   0.019805   0.407300   0.096082
   71  H  5  X   -0.000289   0.000007  -0.004192   0.000262  -0.000205
   72  H  5  Y   -0.002455   0.004226   0.000120  -0.001334  -0.006285
   73  H  5  Z    0.003251  -0.007290  -0.000204  -0.002336  -0.014288
   74  H  5  S   -0.486707   3.803531  -0.353238  -4.345947   0.573520
   75  H  5  X    0.001781  -0.002037   0.031069  -0.003701  -0.001072
   76  H  5  Y    0.063768  -0.091989  -0.000448  -0.002441  -0.090692
   77  H  5  Z    0.051473   0.068508   0.007203   0.101267   0.038219

                     16         17         18         19         20
                    0.1118     0.1126     0.1167     0.1280     0.1459
                     A          A          A          A          A   
    1  C  1  S    0.005628  -0.001647  -0.038821  -0.014845  -0.014981
    2  C  1  S   -0.057903   0.014411  -0.204877  -0.019179  -0.120417
    3  C  1  S   -0.982081   0.269142   0.323545   0.524528   0.531601
    4  C  1  X   -0.058593  -0.228920  -0.001237   0.008294   0.001020
    5  C  1  Y    0.111439  -0.023593  -0.084326   0.237392   0.039313
    6  C  1  Z    0.002722  -0.000621   0.121413   0.001217   0.130456
    7  C  1  X   -0.060569  -0.177282  -0.000925  -0.027080  -0.006879
    8  C  1  Y   -0.408319   0.116526   0.294894  -0.931552  -0.169900
    9  C  1  Z   -1.197888   0.342188  -1.552603  -0.380836   1.549798
   10  C  1 XX    0.000815  -0.000213   0.019900   0.016683  -0.039513
   11  C  1 YY   -0.000194   0.000016   0.003806  -0.008155   0.048815
   12  C  1 ZZ   -0.000621   0.000198  -0.023706  -0.008528  -0.009303
   13  C  1 XY   -0.000721  -0.001108  -0.000452  -0.000364   0.001914
   14  C  1 XZ    0.001858   0.006621  -0.000183   0.000274  -0.000380
   15  C  1 YZ    0.023450  -0.006135  -0.007312   0.009203  -0.016614
   16  C  1  S   -5.572812   1.363272   5.086689   5.286932   0.156145
   17  C  1  X    0.541283   2.169555   0.026424  -0.144803  -0.053386
   18  C  1  Y   -0.308908   0.048975   1.843026  -6.050263  -2.448753
   19  C  1  Z   -3.520883   0.916012  -1.936317   1.708326   0.567274
   20  C  1 XX    0.045707  -0.012395  -0.160746  -0.037026  -0.096319
   21  C  1 YY    0.176887  -0.051817   0.342374   0.200509  -0.661554
   22  C  1 ZZ   -0.222594   0.064212  -0.181627  -0.163483   0.757874
   23  C  1 XY    0.013244   0.031499   0.013141   0.010738  -0.013446
   24  C  1 XZ    0.016120   0.054729   0.001049   0.005871   0.011884
   25  C  1 YZ   -0.058791   0.015300  -0.014373   0.331292   0.321307
   26  C  2  S    0.008401  -0.002515  -0.035995  -0.026315   0.024655
   27  C  2  S    0.109108  -0.029201  -0.112583  -0.099272   0.013019
   28  C  2  S    0.465302  -0.124279   1.280530   0.780644  -2.184960
   29  C  2  X    0.060825   0.233380  -0.000275  -0.000463   0.002507
   30  C  2  Y    0.174918  -0.047692  -0.007648   0.001866  -0.093467
   31  C  2  Z    0.057550  -0.014511  -0.085163  -0.008531  -0.067718
   32  C  2  X    0.069685   0.217987  -0.005086  -0.002913  -0.005640
   33  C  2  Y   -0.355067   0.112514   0.135715   0.405083  -0.512228
   34  C  2  Z   -1.327836   0.381321  -0.893062   0.124303   1.093521
   35  C  2 XX   -0.004680   0.001320   0.005392   0.013512  -0.011860
   36  C  2 YY    0.005943  -0.001430   0.002488  -0.007863   0.017819
   37  C  2 ZZ   -0.001263   0.000110  -0.007880  -0.005650  -0.005959
   38  C  2 XY    0.001152   0.005860  -0.000360  -0.000316   0.000713
   39  C  2 XZ    0.000602   0.004058   0.000114  -0.000517   0.000384
   40  C  2 YZ   -0.015707   0.003506   0.004085  -0.017036   0.001515
   41  C  2  S    4.002379  -0.898951   2.616284  -0.908964  -1.939602
   42  C  2  X   -0.545795  -2.166733  -0.002172   0.023281   0.007356
   43  C  2  Y   -2.709583   0.770635  -0.762338   3.505563   0.703477
   44  C  2  Z   -4.085672   1.068921  -0.138883   2.244961   1.086466
   45  C  2 XX    0.008163  -0.002833  -0.127937  -0.071184  -0.023678
   46  C  2 YY   -0.299103   0.084855  -0.128866   0.040621   0.196743
   47  C  2 ZZ    0.290940  -0.082022   0.256803   0.030563  -0.173065
   48  C  2 XY   -0.011480  -0.061128  -0.001632  -0.000781   0.004597
   49  C  2 XZ    0.024790   0.081678   0.000349  -0.002177   0.001072
   50  C  2 YZ   -0.238764   0.067059   0.094721   0.143301   0.188004
   51  H  3  S   -0.020968   0.000902   0.010859  -0.087386   0.102822
   52  H  3  S    2.185010  -0.650958  -0.537747  -1.785030   0.604533
   53  H  3  X    0.000256   0.000562  -0.000101  -0.000198   0.000045
   54  H  3  Y   -0.019157   0.005489   0.011445   0.011057  -0.008236
   55  H  3  Z   -0.011567   0.003492  -0.001860   0.015126  -0.005244
   56  H  3  S    5.991980  -1.634508   0.160792  -3.848689  -0.777512
   57  H  3  X    0.033816   0.114597  -0.003355  -0.010412   0.006682
   58  H  3  Y   -0.595717   0.171099   0.247441   0.281757   0.216715
   59  H  3  Z   -0.373060   0.105777   0.067451   0.160568  -0.140964
   60  H  4  S    0.027795  -0.004633  -0.002656  -0.057751   0.099054
   61  H  4  S   -1.034498   0.301011  -1.679980  -3.136559   0.720812
   62  H  4  X   -0.000192   0.000382  -0.000326  -0.000622  -0.000615
   63  H  4  Y   -0.010527   0.003082  -0.009509  -0.022796  -0.024060
   64  H  4  Z   -0.008671   0.002557  -0.000985  -0.011050   0.005808
   65  H  4  S   -3.780692   1.010007  -0.774927  -5.119237  -1.965877
   66  H  4  X   -0.029059  -0.085184  -0.015128  -0.024197  -0.003221
   67  H  4  Y   -0.318781   0.089877  -0.440766  -0.569325  -0.473567
   68  H  4  Z   -0.294661   0.079676  -0.207500  -0.571136   0.400993
   69  H  5  S   -0.019245   0.003843  -0.017584  -0.022438   0.225759
   70  H  5  S   -0.028500   0.020531  -2.728040   1.099941   2.826245
   71  H  5  X   -0.000517  -0.001445   0.000597  -0.000334   0.000240
   72  H  5  Y   -0.007818   0.002226   0.026096  -0.016473   0.011416
   73  H  5  Z    0.000662  -0.000106  -0.013637   0.014697  -0.000217
   74  H  5  S   -1.195614   0.326108  -4.239180   6.566792   2.817162
   75  H  5  X   -0.031854  -0.117521   0.011970  -0.006404   0.003715
   76  H  5  Y   -0.007236   0.000929   0.668841  -0.421409   0.139941
   77  H  5  Z    0.102592  -0.023610  -0.420272   0.163974   0.435711

                     21         22         23         24         25
                    0.1684     0.1954     0.2193     0.2529     0.2856
                     A          A          A          A          A   
    1  C  1  S    0.049190   0.018669   0.000286  -0.005149  -0.009789
    2  C  1  S    0.158326   0.012082   0.001066  -0.030180  -0.137150
    3  C  1  S   -2.124649  -0.556654   0.011269   0.743215   0.388642
    4  C  1  X   -0.005897   0.006997   0.001411  -0.004051   0.003038
    5  C  1  Y   -0.065661   0.124474  -0.015525  -0.199845   0.008840
    6  C  1  Z   -0.062435  -0.019711   0.001335   0.075366  -0.015382
    7  C  1  X   -0.006037   0.007927  -0.069652  -0.002824   0.010019
    8  C  1  Y   -0.094134   0.602618  -0.020365  -0.225488   0.082179
    9  C  1  Z   -1.010045   1.216097   0.050807   0.751905   2.399527
   10  C  1 XX    0.014199  -0.024716   0.002519  -0.015403  -0.023634
   11  C  1 YY   -0.005771   0.025644  -0.002859   0.017683  -0.073701
   12  C  1 ZZ   -0.008428  -0.000928   0.000340  -0.002280   0.097335
   13  C  1 XY   -0.002337   0.003335   0.047213  -0.001844  -0.000812
   14  C  1 XZ   -0.000276   0.000319  -0.002691  -0.001105   0.000837
   15  C  1 YZ   -0.037587   0.037490  -0.005775  -0.031510  -0.013276
   16  C  1  S  -18.282170 -20.715664  -0.408837 -10.427273   2.285552
   17  C  1  X   -0.029525   0.049863   0.013768  -0.037452   0.003739
   18  C  1  Y   -0.148340   2.484962  -0.134729  -1.728216  -0.968413
   19  C  1  Z   -6.206288  -5.868672  -0.136937  -2.303694   4.009846
   20  C  1 XX    0.179794   0.119339  -0.015099   0.085216  -0.275037
   21  C  1 YY    0.140804  -0.556738   0.009137  -0.212244   0.131194
   22  C  1 ZZ   -0.320598   0.437399   0.005962   0.127027   0.143843
   23  C  1 XY    0.000809  -0.021827  -0.176625   0.010606  -0.002617
   24  C  1 XZ    0.008127  -0.014381  -0.014452   0.023022  -0.008175
   25  C  1 YZ    0.445497  -0.199844   0.075102   0.856459   0.211906
   26  C  2  S   -0.045716  -0.017495  -0.000231  -0.004357   0.034142
   27  C  2  S   -0.198034  -0.048425  -0.002054  -0.000924   0.162753
   28  C  2  S    1.617586  -0.506755   0.014118  -0.363219  -0.629545
   29  C  2  X    0.005546  -0.008209  -0.039950   0.002199   0.003953
   30  C  2  Y   -0.039011   0.062903   0.011598   0.288517  -0.039172
   31  C  2  Z   -0.109334  -0.006886  -0.004166   0.021868  -0.250997
   32  C  2  X    0.000917  -0.015493  -0.233559  -0.010369   0.017411
   33  C  2  Y   -0.145578   0.797520   0.012070   0.388779   0.424094
   34  C  2  Z   -1.203885   1.121009   0.036947   0.787853   1.562190
   35  C  2 XX   -0.016330   0.012201  -0.000450   0.014573   0.029174
   36  C  2 YY    0.011661   0.003362  -0.000046  -0.021602   0.021653
   37  C  2 ZZ    0.004669  -0.015563   0.000496   0.007029  -0.050828
   38  C  2 XY   -0.001159   0.001465   0.022092  -0.000872  -0.001419
   39  C  2 XZ    0.000438   0.000150   0.009198   0.000057  -0.000788
   40  C  2 YZ    0.017799  -0.052556   0.004018   0.010138  -0.007269
   41  C  2  S   18.518385  20.862472   0.422945  11.072743  -3.981366
   42  C  2  X    0.032133  -0.010422  -0.167187   0.019115  -0.002877
   43  C  2  Y   -1.674157  -1.008599   0.015995   1.590214   1.299733
   44  C  2  Z   -6.128393  -5.223907  -0.180827  -2.443824   1.587914
   45  C  2 XX   -0.185382  -0.161831   0.019462  -0.005795   0.187222
   46  C  2 YY   -0.165101   0.201003   0.004474   0.201938   0.183311
   47  C  2 ZZ    0.350483  -0.039172  -0.023936  -0.196144  -0.370533
   48  C  2 XY   -0.009794   0.014158   0.254600  -0.018189   0.006775
   49  C  2 XZ    0.006361  -0.017593  -0.111024   0.015995   0.000577
   50  C  2 YZ    0.336542   0.274034   0.036187   0.611911   0.329856
   51  H  3  S    0.176627  -0.179901   0.009430  -0.091948  -0.023605
   52  H  3  S   -0.281009  -3.007950  -0.132593  -2.922939  -2.144062
   53  H  3  X    0.000225  -0.000586  -0.004072   0.000461  -0.000291
   54  H  3  Y    0.013067  -0.002251   0.000819  -0.003231   0.002566
   55  H  3  Z    0.005083  -0.007255   0.000264  -0.004540  -0.012122
   56  H  3  S    3.135651   1.713560   0.129316   0.183111  -2.680510
   57  H  3  X   -0.017679   0.008026   0.525005  -0.032469  -0.055363
   58  H  3  Y    0.599702   0.624950   0.019617  -0.235811   0.709626
   59  H  3  Z    0.159321  -0.198943   0.062133   0.213217   0.245042
   60  H  4  S   -0.159437   0.216779  -0.013471   0.014013   0.017907
   61  H  4  S   -0.596539   3.604823  -0.121916  -0.756456   1.175854
   62  H  4  X    0.000366   0.000326  -0.000630   0.000410   0.000285
   63  H  4  Y    0.019935   0.001649   0.001144  -0.000031   0.015493
   64  H  4  Z    0.022058  -0.001669   0.002237   0.024536  -0.008867
   65  H  4  S   -2.005639   0.916287  -0.124611  -0.455997   0.911197
   66  H  4  X    0.018689  -0.006089  -0.730409   0.049084  -0.017432
   67  H  4  Y    0.138062   0.193143   0.016317  -0.337920   0.590895
   68  H  4  Z    0.221153   0.131761   0.051468   0.422867  -0.846347
   69  H  5  S    0.028698  -0.054929   0.011218   0.155931   0.047368
   70  H  5  S    1.537025   1.068037   0.192989   2.746353   1.912368
   71  H  5  X   -0.000611   0.000415   0.003140   0.000156  -0.000155
   72  H  5  Y   -0.015811   0.002030   0.000362   0.016414  -0.012630
   73  H  5  Z   -0.007780   0.016224  -0.002575  -0.017758  -0.017511
   74  H  5  S   -1.441321  -3.081517  -0.001363  -0.014443   2.700684
   75  H  5  X   -0.034785   0.032102   0.830991  -0.049159  -0.017639
   76  H  5  Y   -0.471987  -0.047738  -0.056790  -0.029095  -0.830282
   77  H  5  Z   -0.034287   0.604274  -0.046783  -0.518421  -0.868947

                     26         27         28         29         30
                    0.3082     0.3152     0.3553     0.3770     0.4045
                     A          A          A          A          A   
    1  C  1  S   -0.005717  -0.030129  -0.000533  -0.019764   0.040271
    2  C  1  S   -0.025046  -0.127092  -0.000870  -0.058935  -0.016957
    3  C  1  S    0.243355   1.428803   0.016796   1.765970  -2.122398
    4  C  1  X   -0.057995   0.011177  -0.246365   0.005608  -0.001173
    5  C  1  Y   -0.026111  -0.137080   0.008520   0.279537   0.055067
    6  C  1  Z   -0.049316  -0.248461  -0.000432  -0.075976  -0.000360
    7  C  1  X   -0.336776   0.057047  -0.969793   0.087266  -0.015060
    8  C  1  Y    0.073892   0.210301   0.039013   3.090262   0.308971
    9  C  1  Z    0.495365   2.266271  -0.041283   1.731845  -1.812180
   10  C  1 XX   -0.006664  -0.026333  -0.000175  -0.013511   0.018365
   11  C  1 YY   -0.001336   0.001398   0.000207   0.006563   0.008602
   12  C  1 ZZ    0.008000   0.024935  -0.000032   0.006948  -0.026967
   13  C  1 XY   -0.034099   0.006873   0.011065  -0.000494  -0.000884
   14  C  1 XZ   -0.018060   0.002929  -0.029598  -0.001128  -0.000747
   15  C  1 YZ   -0.003738  -0.022834  -0.000154  -0.050386  -0.010043
   16  C  1  S    1.408926   5.003665   0.080052   0.102304  -6.252129
   17  C  1  X   -0.113747  -0.042234  -1.112213   0.133421   0.006918
   18  C  1  Y   -0.739364  -3.535993   0.053546   4.842296   1.591547
   19  C  1  Z    0.484251   1.430636   0.016024  -0.065501  -1.788416
   20  C  1 XX   -0.015075  -0.081378  -0.001598  -0.078318   0.530919
   21  C  1 YY   -0.123077  -0.547893   0.006184  -0.334634   0.609059
   22  C  1 ZZ    0.138152   0.629271  -0.004586   0.412952  -1.139978
   23  C  1 XY    0.505668  -0.110147  -0.226020  -0.006474   0.030349
   24  C  1 XZ    0.007232   0.005739   0.076385   0.018084   0.008390
   25  C  1 YZ    0.188064   1.032452   0.015804   0.305572   0.268674
   26  C  2  S    0.006703   0.027070  -0.000236   0.010223   0.032419
   27  C  2  S    0.026834   0.106977  -0.000016   0.028028  -0.012408
   28  C  2  S   -0.355051  -1.514536   0.013842  -0.555351  -0.282705
   29  C  2  X   -0.109798   0.025451   0.044384  -0.000132  -0.002944
   30  C  2  Y    0.006978   0.033462  -0.003598   0.034725  -0.202944
   31  C  2  Z   -0.004867   0.018789  -0.000813  -0.018453   0.035137
   32  C  2  X   -0.631013   0.115220   0.446452  -0.041601   0.008528
   33  C  2  Y   -0.088365  -0.474525  -0.041851   0.187408  -2.268477
   34  C  2  Z    0.599704   2.952870  -0.033131   2.009344  -2.947640
   35  C  2 XX    0.005921   0.027879   0.000084   0.007158   0.005655
   36  C  2 YY    0.010703   0.050702  -0.000243   0.011137  -0.021347
   37  C  2 ZZ   -0.016624  -0.078581   0.000159  -0.018295   0.015693
   38  C  2 XY    0.034893  -0.006503  -0.010243   0.000078   0.000920
   39  C  2 XZ    0.024230  -0.003993   0.015224   0.000012   0.000251
   40  C  2 YZ   -0.004484  -0.020805  -0.000830   0.006309  -0.007286
   41  C  2  S   -1.136600  -4.006237  -0.079277   0.617656   0.701478
   42  C  2  X   -0.454732   0.088937   0.535671  -0.041186   0.011239
   43  C  2  Y    0.567061   2.584562  -0.030391  -0.627019  -2.754976
   44  C  2  Z    0.857432   3.819821   0.016140   0.600299  -1.895538
   45  C  2 XX    0.061037   0.353978  -0.006755   0.141714   0.900388
   46  C  2 YY    0.073074   0.379472  -0.002215   0.774253  -0.963823
   47  C  2 ZZ   -0.134111  -0.733450   0.008970  -0.915967   0.063435
   48  C  2 XY   -0.357133   0.068316  -0.180055   0.001055   0.004405
   49  C  2 XZ   -0.157255   0.029698   0.326627   0.016810   0.005369
   50  C  2 YZ    0.213866   1.132425   0.007909   0.720262   0.124895
   51  H  3  S   -0.008995  -0.018773   0.000217   0.054805  -0.034857
   52  H  3  S   -0.593520  -2.930784   0.059533  -3.280245   6.792900
   53  H  3  X    0.004866  -0.000609   0.000126  -0.000005   0.000011
   54  H  3  Y   -0.000360  -0.000542  -0.000128   0.000421   0.001988
   55  H  3  Z   -0.007033  -0.033905  -0.000122  -0.009522   0.008874
   56  H  3  S   -0.683664  -2.821927  -0.003861  -0.562908   3.007536
   57  H  3  X    1.491133  -0.302899  -0.385155  -0.014215   0.046598
   58  H  3  Y    0.211825   1.025339  -0.009272   0.478537  -1.437211
   59  H  3  Z   -0.206224  -1.049598  -0.010637   0.742592  -0.880494
   60  H  4  S   -0.016227  -0.049226   0.000591   0.026368   0.039002
   61  H  4  S   -0.060172  -0.550788  -0.054543   4.314834   0.166454
   62  H  4  X    0.004980  -0.000619  -0.011933   0.000177  -0.000460
   63  H  4  Y    0.000359  -0.001050   0.000285   0.005038   0.003913
   64  H  4  Z    0.000413   0.003976   0.000270   0.002814   0.000744
   65  H  4  S   -0.253457  -1.294196   0.011603   4.141526   0.213774
   66  H  4  X    1.266680  -0.249749   0.718767   0.033192   0.047830
   67  H  4  Y    0.051686   0.142941  -0.056995  -0.097917  -0.294991
   68  H  4  Z    0.128689   0.769784  -0.001888   1.550151  -0.430066
   69  H  5  S    0.004558   0.044931   0.000791   0.009127   0.021943
   70  H  5  S    0.585817   3.273996  -0.024865  -2.683277   0.502675
   71  H  5  X   -0.006320   0.001399  -0.010028   0.000192   0.000094
   72  H  5  Y    0.000860   0.008322   0.000671   0.014419   0.000626
   73  H  5  Z   -0.006355  -0.032166  -0.000164  -0.018137   0.001650
   74  H  5  S    0.808601   3.575824  -0.011319  -3.861378  -0.964923
   75  H  5  X   -0.456871   0.078893   1.619411  -0.036901  -0.026360
   76  H  5  Y   -0.100868  -0.538862  -0.036760  -0.395714  -0.214445
   77  H  5  Z    0.053612   0.406020  -0.016058  -0.906275  -0.201129

                     31         32         33         34         35
                    0.4382     0.4437     0.4483     0.4763     0.4830
                     A          A          A          A          A   
    1  C  1  S    0.064907   0.013613   0.000119   0.022381  -0.008577
    2  C  1  S    0.031622  -0.048331  -0.001583  -0.026445   0.021385
    3  C  1  S   -4.205566   0.749491   0.211421  -2.215369   0.690346
    4  C  1  X    0.007441  -0.040281   0.246575   0.012934   0.045029
    5  C  1  Y    0.027193  -0.062750  -0.008796  -0.131997  -0.044761
    6  C  1  Z    0.083394   0.000420   0.013272  -0.014075   0.027824
    7  C  1  X    0.047782  -0.194803   1.812017   0.021110   0.319043
    8  C  1  Y   -0.612139   1.191737   0.450910  -3.642434   0.712274
    9  C  1  Z    5.908237   3.760251   0.451094  -0.853052   0.938423
   10  C  1 XX    0.017936  -0.008329   0.000045  -0.012851   0.000059
   11  C  1 YY   -0.026582  -0.005309  -0.001497   0.012982  -0.003636
   12  C  1 ZZ    0.008646   0.013639   0.001452  -0.000132   0.003577
   13  C  1 XY   -0.000888  -0.000874   0.001941   0.000269   0.004567
   14  C  1 XZ    0.000304   0.000464  -0.013966  -0.002857   0.030492
   15  C  1 YZ    0.019841   0.011842  -0.001990  -0.011216  -0.013649
   16  C  1  S   -6.839629  -3.970854  -1.073625   3.625534  -0.421413
   17  C  1  X    0.012297  -0.080301   1.143867   0.049012  -0.151475
   18  C  1  Y   -0.597753   1.619757   0.349366  -0.798453   0.374912
   19  C  1  Z    1.101455   0.247332  -0.105891   0.785926  -0.019018
   20  C  1 XX    0.579092   0.270669   0.052005  -0.457838  -0.002047
   21  C  1 YY   -1.939142  -0.764528  -0.068730   0.506550  -0.373398
   22  C  1 ZZ    1.360049   0.493859   0.016725  -0.048713   0.375445
   23  C  1 XY   -0.084535  -0.011099  -0.263681   0.009825   0.297570
   24  C  1 XZ   -0.004772   0.042746  -0.119790   0.075231  -1.420551
   25  C  1 YZ    0.633438  -2.617231  -0.330969  -0.118816  -0.401552
   26  C  2  S    0.062130   0.028870  -0.000527   0.053164   0.013533
   27  C  2  S   -0.000515  -0.024881  -0.009231   0.014672  -0.011185
   28  C  2  S   -6.421587  -2.519970  -0.043836  -4.220617  -1.818000
   29  C  2  X    0.003326   0.017838  -0.254244  -0.025679   0.250403
   30  C  2  Y    0.126586   0.065707   0.010269  -0.135713  -0.010141
   31  C  2  Z    0.030801  -0.082177   0.005481  -0.178338   0.012303
   32  C  2  X    0.004120   0.019313  -0.690763  -0.061382   1.520612
   33  C  2  Y   -0.741359   3.160808   0.416162  -1.464496  -0.028105
   34  C  2  Z    3.075351   2.749173   0.435640  -2.416242   0.854700
   35  C  2 XX    0.033199  -0.000693  -0.000935  -0.010781   0.001159
   36  C  2 YY   -0.012995   0.026753   0.003571   0.016405   0.004124
   37  C  2 ZZ   -0.020204  -0.026060  -0.002635  -0.005624  -0.005283
   38  C  2 XY   -0.000222  -0.000916   0.004416   0.000276  -0.004226
   39  C  2 XZ   -0.000195   0.002624  -0.014925  -0.001927  -0.001411
   40  C  2 YZ   -0.021137   0.053975   0.007931   0.012926   0.010114
   41  C  2  S   -0.705826   1.294073   0.823103  -4.697183   0.153809
   42  C  2  X    0.005033   0.086872  -1.178777  -0.077222   0.526657
   43  C  2  Y    0.507044   0.035055  -0.029462  -0.236377  -0.128616
   44  C  2  Z   -0.229816  -0.138923  -0.124546   0.146780  -0.042842
   45  C  2 XX    0.037862   0.216149   0.022769  -0.143931  -0.029211
   46  C  2 YY    0.496222   1.361586   0.108658   0.101263  -0.037516
   47  C  2 ZZ   -0.534084  -1.577735  -0.131427   0.042668   0.066727
   48  C  2 XY    0.015675  -0.000096  -0.660178  -0.049036   0.971457
   49  C  2 XZ    0.023257  -0.165440   1.045807   0.088836   0.289277
   50  C  2 YZ   -0.357940  -0.838932  -0.018952  -0.379307   0.178756
   51  H  3  S   -0.094493   0.183539   0.027328   0.126564   0.054509
   52  H  3  S    1.190206  -3.079472  -0.716851   6.462052   0.255972
   53  H  3  X   -0.000259   0.000646  -0.017183  -0.001543   0.021877
   54  H  3  Y   -0.018960   0.012946   0.000965   0.029357   0.001667
   55  H  3  Z   -0.020886   0.024852   0.004115   0.003003   0.007544
   56  H  3  S   -0.043106  -0.193117  -0.032606   0.892162   0.104110
   57  H  3  X   -0.015346  -0.007310   0.747880   0.078986  -1.383722
   58  H  3  Y   -0.398450  -0.221224   0.153623  -3.240296  -0.117452
   59  H  3  Z   -0.112522   1.437794   0.124958  -0.949743  -0.516038
   60  H  4  S   -0.043311  -0.081278  -0.019269   0.020380  -0.080889
   61  H  4  S    6.125185   9.313472   1.582846  -5.830618   1.819608
   62  H  4  X    0.000313  -0.001964   0.016747   0.001528  -0.004474
   63  H  4  Y    0.007535  -0.017887  -0.002683   0.003771   0.002752
   64  H  4  Z   -0.005643  -0.012024   0.000891  -0.001379   0.011301
   65  H  4  S    1.411431   1.892263   0.329472  -0.889323   0.182415
   66  H  4  X    0.009710   0.276463  -1.268103  -0.113151  -0.143928
   67  H  4  Y    1.097202   2.981486   0.483733  -1.598881   0.301135
   68  H  4  Z    1.840605   0.130028   0.038717  -1.218162   0.110626
   69  H  5  S   -0.178203   0.088899   0.015450   0.109613   0.016644
   70  H  5  S    9.103050  -2.478928  -0.759542   4.668384  -0.833749
   71  H  5  X    0.000249  -0.002711   0.007888   0.000568   0.013220
   72  H  5  Y   -0.006837  -0.005598  -0.000911   0.022460   0.001219
   73  H  5  Z    0.007119  -0.003844  -0.001905   0.003405  -0.004208
   74  H  5  S    1.540229  -0.506000  -0.196685   0.814696  -0.201417
   75  H  5  X   -0.045733   0.158867  -0.421640  -0.028593  -1.119347
   76  H  5  Y   -2.117807   1.455697   0.344504  -2.545043   0.344583
   77  H  5  Z    1.124944   0.985389  -0.009935   1.419146   0.047454

                     36         37         38         39         40
                    0.4873     0.4933     0.5049     0.5566     0.5628
                     A          A          A          A          A   
    1  C  1  S    0.009027   0.104167  -0.024918   0.078429  -0.009771
    2  C  1  S   -0.104782  -0.004991  -0.027433   0.022752   0.002474
    3  C  1  S   -1.422980  -8.290944   4.291202  -8.371902   0.910267
    4  C  1  X    0.026925   0.002181  -0.003265  -0.002795   0.071682
    5  C  1  Y    0.170938   0.007002  -0.109694  -0.062033   0.004973
    6  C  1  Z   -0.247668   0.323439  -0.085217  -0.144223   0.020709
    7  C  1  X    0.209036   0.011036  -0.089810   0.095258   1.361205
    8  C  1  Y   -0.323588  -0.859320  -7.073087  -0.176642   0.177863
    9  C  1  Z   -2.680619  -2.652760   1.381092  -1.610286   0.681806
   10  C  1 XX   -0.010799   0.008588  -0.006023   0.026943  -0.001477
   11  C  1 YY    0.012151   0.031789  -0.008805  -0.008116  -0.000490
   12  C  1 ZZ   -0.001352  -0.040377   0.014828  -0.018826   0.001967
   13  C  1 XY    0.002591   0.001408   0.000268  -0.000927   0.002777
   14  C  1 XZ    0.006303   0.002902   0.001263  -0.006743  -0.055340
   15  C  1 YZ    0.054762  -0.002546   0.013230  -0.027664   0.002171
   16  C  1  S    4.577642  -4.962139  -4.843041 -14.634227   1.920502
   17  C  1  X    0.001427  -0.030898  -0.037961   0.022240   0.222869
   18  C  1  Y   -0.112883  -0.555663  -1.880082   0.912026  -0.140667
   19  C  1  Z    0.357062  -0.192245  -0.982629  -4.839207   0.639956
   20  C  1 XX   -0.308391   0.295571   0.571351  -0.040161   0.001899
   21  C  1 YY    0.406616   2.647771  -0.658489  -1.820279  -0.019177
   22  C  1 ZZ   -0.098225  -2.943342   0.087138   1.860440   0.017278
   23  C  1 XY    0.088296   0.112880   0.069108   0.053388   1.608922
   24  C  1 XZ   -0.261554  -0.143473  -0.079798   0.221012   2.161742
   25  C  1 YZ    0.763790   0.397740   0.267993   0.182805  -0.072261
   26  C  2  S   -0.003242  -0.087679  -0.031721  -0.051109   0.008812
   27  C  2  S    0.093513  -0.080718  -0.011097   0.134566  -0.011735
   28  C  2  S    1.895040  10.042511   2.838781   2.924589  -0.799171
   29  C  2  X    0.034193   0.018401  -0.000144  -0.038063  -0.315816
   30  C  2  Y    0.070262  -0.019870  -0.017490   0.003750   0.004094
   31  C  2  Z   -0.199076   0.175306   0.000122  -0.082719   0.018308
   32  C  2  X    0.252213   0.135943   0.086467  -0.151040  -1.421709
   33  C  2  Y   -0.608697   1.057499   3.281117   0.625411   0.032476
   34  C  2  Z   -2.923786  -3.072550   2.528761  -1.471005   0.627788
   35  C  2 XX    0.013254  -0.049512   0.002571   0.011030   0.001077
   36  C  2 YY   -0.014208   0.004234   0.006977  -0.027385   0.001260
   37  C  2 ZZ    0.000954   0.045278  -0.009548   0.016355  -0.002337
   38  C  2 XY    0.001026   0.000625  -0.000263   0.002459   0.027275
   39  C  2 XZ   -0.002005  -0.000451  -0.000826  -0.001974  -0.033031
   40  C  2 YZ   -0.031338   0.006551   0.010065  -0.013867   0.000842
   41  C  2  S   -4.418674   5.213471   5.839752  15.608727  -2.025626
   42  C  2  X    0.071169   0.043604   0.009401  -0.036140  -0.384722
   43  C  2  Y   -0.250078   0.443769   0.967036  -1.177421   0.181813
   44  C  2  Z    0.377885  -0.704141  -0.713125  -3.796540   0.561724
   45  C  2 XX    0.248955  -0.329265  -0.027026  -0.375076   0.057801
   46  C  2 YY    0.314291  -0.536588   1.469265  -0.930518   0.105293
   47  C  2 ZZ   -0.563246   0.865853  -1.442239   1.305594  -0.163094
   48  C  2 XY    0.163801   0.071725   0.067652  -0.011687   0.056538
   49  C  2 XZ    0.160692   0.022641   0.068014   0.148404   1.889083
   50  C  2 YZ   -0.947868   0.230883  -0.351222   1.029998  -0.073059
   51  H  3  S   -0.179368  -0.029696   0.046674  -0.153048   0.009950
   52  H  3  S    2.553138  -3.802145  -7.371308  -3.012214   0.039953
   53  H  3  X    0.003943   0.002738   0.001334  -0.001348  -0.001625
[...]
 II,JST,KST,LST =  1  1  1  1 NREC =         1 INTLOC =    1
 II,JST,KST,LST =  2  1  1  1 NREC =         1 INTLOC =    1
 II,JST,KST,LST =  3  1  1  1 NREC =         1 INTLOC =    1
 II,JST,KST,LST =  4  1  1  1 NREC =         1 INTLOC =    1
 II,JST,KST,LST =  5  1  1  1 NREC =         1 INTLOC =    1
 II,JST,KST,LST =  6  1  1  1 NREC =         1 INTLOC =    1
 II,JST,KST,LST =  7  1  1  1 NREC =         1 INTLOC =    4
 II,JST,KST,LST =  8  1  1  1 NREC =         1 INTLOC =   49
 II,JST,KST,LST =  9  1  1  1 NREC =         1 INTLOC =  436
 II,JST,KST,LST = 10  1  1  1 NREC =         1 INTLOC =  436
 II,JST,KST,LST = 11  1  1  1 NREC =         1 INTLOC =  436
 II,JST,KST,LST = 12  1  1  1 NREC =         1 INTLOC = 1768
 II,JST,KST,LST = 13  1  1  1 NREC =         1 INTLOC = 1768
 II,JST,KST,LST = 14  1  1  1 NREC =         1 INTLOC = 1768
 II,JST,KST,LST = 15  1  1  1 NREC =         1 INTLOC = 2842
 II,JST,KST,LST = 16  1  1  1 NREC =         1 INTLOC = 4591
 II,JST,KST,LST = 17  1  1  1 NREC =         1 INTLOC = 5197
 II,JST,KST,LST = 18  1  1  1 NREC =         1 INTLOC = 6178
 II,JST,KST,LST = 19  1  1  1 NREC =         1 INTLOC =12508
 II,JST,KST,LST = 20  1  1  1 NREC =         2 INTLOC =10077
 II,JST,KST,LST = 21  1  1  1 NREC =         2 INTLOC =10077
 II,JST,KST,LST = 22  1  1  1 NREC =         2 INTLOC =10077
 II,JST,KST,LST = 23  1  1  1 NREC =         3 INTLOC =  638
 II,JST,KST,LST = 24  1  1  1 NREC =         4 INTLOC =13098
 II,JST,KST,LST = 25  1  1  1 NREC =         4 INTLOC =13098
 II,JST,KST,LST = 26  1  1  1 NREC =         5 INTLOC = 7519
 II,JST,KST,LST = 27  1  1  1 NREC =         6 INTLOC =12155
 II,JST,KST,LST = 28  1  1  1 NREC =         7 INTLOC = 2523
 II,JST,KST,LST = 29  1  1  1 NREC =         9 INTLOC =11653
 II,JST,KST,LST = 30  1  1  1 NREC =        10 INTLOC = 2958
 II,JST,KST,LST = 31  1  1  1 NREC =        11 INTLOC = 5720
 II,JST,KST,LST = 32  1  1  1 NREC =        12 INTLOC = 6801
 II,JST,KST,LST = 33  1  1  1 NREC =        13 INTLOC = 2992
 II,JST,KST,LST = 34  1  1  1 NREC =        18 INTLOC = 9548
 II,JST,KST,LST = 35  1  1  1 NREC =        18 INTLOC = 9548
 II,JST,KST,LST = 36  1  1  1 NREC =        20 INTLOC = 1822
 II,JST,KST,LST = 37  1  1  1 NREC =        20 INTLOC = 9137
 II,JST,KST,LST = 38  1  1  1 NREC =        23 INTLOC = 2590
 II,JST,KST,LST = 39  1  1  1 NREC =        23 INTLOC = 2590
 II,JST,KST,LST = 40  1  1  1 NREC =        31 INTLOC =  885
 II,JST,KST,LST = 41  1  1  1 NREC =        33 INTLOC = 3292
 II,JST,KST,LST = 42  1  1  1 NREC =        36 INTLOC =11534
 II,JST,KST,LST = 43  1  1  1 NREC =        63 INTLOC =  547
 II,JST,KST,LST = 44  1  1  1 NREC =        63 INTLOC =  547
 II,JST,KST,LST = 45  1  1  1 NREC =        63 INTLOC =  547
 II,JST,KST,LST = 46  1  1  1 NREC =        70 INTLOC =12912
 II,JST,KST,LST = 47  1  1  1 NREC =        72 INTLOC = 7605
 II,JST,KST,LST = 48  1  1  1 NREC =        82 INTLOC = 4317
 II,JST,KST,LST = 49  1  1  1 NREC =        95 INTLOC = 7025
 II,JST,KST,LST = 50  1  1  1 NREC =       102 INTLOC = 1695
 II,JST,KST,LST = 51  1  1  1 NREC =       111 INTLOC =14688
 II,JST,KST,LST = 52  1  1  1 NREC =       150 INTLOC =13158
 II,JST,KST,LST = 53  1  1  1 NREC =       150 INTLOC =13158
 II,JST,KST,LST = 54  1  1  1 NREC =       153 INTLOC = 1510
 II,JST,KST,LST = 55  1  1  1 NREC =       162 INTLOC =12096
 II,JST,KST,LST = 56  1  1  1 NREC =       170 INTLOC = 1613
 II,JST,KST,LST = 57  1  1  1 NREC =       177 INTLOC = 9112
 II,JST,KST,LST = 58  1  1  1 NREC =       182 INTLOC = 9085
 II,JST,KST,LST = 59  1  1  1 NREC =       190 INTLOC =  481
 II,JST,KST,LST = 60  1  1  1 NREC =       197 INTLOC = 1907
 II,JST,KST,LST = 61  1  1  1 NREC =       201 INTLOC = 6783
 II,JST,KST,LST = 62  1  1  1 NREC =       236 INTLOC =13704
 II,JST,KST,LST = 63  1  1  1 NREC =       238 INTLOC =13365
 II,JST,KST,LST = 64  1  1  1 NREC =       242 INTLOC =10094
 II,JST,KST,LST = 65  1  1  1 NREC =       264 INTLOC = 9809
 II,JST,KST,LST = 66  1  1  1 NREC =       268 INTLOC = 6976
 SCHWARZ INEQUALITY TEST SKIPPED       32975 INTEGRAL BLOCKS.
 TOTAL NUMBER OF NONZERO TWO-ELECTRON INTEGRALS =            67068847
       4479 INTEGRAL RECORDS WERE STORED ON DISK FILE  8.
  ...... END OF TWO-ELECTRON INTEGRALS .....
 CPU     0: STEP CPU TIME=     0.26 TOTAL CPU TIME=         23.5 (      0.4 MIN)
 TOTAL WALL CLOCK TIME=         23.8 SECONDS, CPU UTILIZATION IS    98.43%

          ---------------------------------------------
          MONOMER ELECTROSTATIC INTERACTION (OWN BASIS)
          ---------------------------------------------

          -------------
          GUESS OPTIONS
          -------------
          GUESS =MOSAVED           NORB  =       0          NORDER=       0
          MIX   =       F          PRTMO =       F          PUNMO =       F
          TOLZ  = 1.0E-08          TOLE  = 1.0E-05
          SYMDEN=       F          PURIFY=       F

 INITIAL GUESS ORBITALS GENERATED BY MOSAVED  ROUTINE.

 STATISTICS FOR GENERATION OF SYMMETRY ORBITAL -Q- MATRIX
 NUMBER OF CARTESIAN ATOMIC ORBITALS=        154
 NUMBER OF SPHERICAL CONTAMINANTS DROPPED=     8
 NUMBER OF LINEARLY DEPENDENT MOS DROPPED=     0
 TOTAL NUMBER OF MOS IN VARIATION SPACE=     146
 ...... END OF INITIAL ORBITAL SELECTION ......
 CPU     0: STEP CPU TIME=     0.01 TOTAL CPU TIME=         23.5 (      0.4 MIN)
 TOTAL WALL CLOCK TIME=         23.8 SECONDS, CPU UTILIZATION IS    98.43%

          ---------------------------
                  UHF SCF CALCULATION
          ---------------------------

 FINAL UHF ENERGY IS     -155.3037888475 AFTER   1 ITERATIONS
 ...... END OF UHF CALCULATION ......
 CPU     0: STEP CPU TIME=     0.08 TOTAL CPU TIME=         23.5 (      0.4 MIN)
 TOTAL WALL CLOCK TIME=         23.9 SECONDS, CPU UTILIZATION IS    98.40%

          -------------
          GUESS OPTIONS
          -------------
          GUESS =MOSAVED           NORB  =       0          NORDER=       0
          MIX   =       F          PRTMO =       F          PUNMO =       F
          TOLZ  = 1.0E-08          TOLE  = 1.0E-05
          SYMDEN=       F          PURIFY=       F

 INITIAL GUESS ORBITALS GENERATED BY MOSAVED  ROUTINE.

 STATISTICS FOR GENERATION OF SYMMETRY ORBITAL -Q- MATRIX
 NUMBER OF CARTESIAN ATOMIC ORBITALS=        154
 NUMBER OF SPHERICAL CONTAMINANTS DROPPED=     8
 NUMBER OF LINEARLY DEPENDENT MOS DROPPED=     0
 TOTAL NUMBER OF MOS IN VARIATION SPACE=     146
 ...... END OF INITIAL ORBITAL SELECTION ......
 CPU     0: STEP CPU TIME=     0.01 TOTAL CPU TIME=         23.5 (      0.4 MIN)
 TOTAL WALL CLOCK TIME=         23.9 SECONDS, CPU UTILIZATION IS    98.40%

          ---------------------------
                  UHF SCF CALCULATION
          ---------------------------

 DIRECT SCF CALCULATION, SCHWRZ=T   FDIFF=T
 SCHWARZ INEQUALITY OVERHEAD:     11935 INTEGRALS, T=        0.00

 FINAL UHF ENERGY IS     -332.1880020059 AFTER   1 ITERATIONS
 ...... END OF UHF CALCULATION ......
 CPU     0: STEP CPU TIME=     0.27 TOTAL CPU TIME=         23.8 (      0.4 MIN)
 TOTAL WALL CLOCK TIME=         24.2 SECONDS, CPU UTILIZATION IS    98.36%

 XEDA STEP ENERGY SUMMATION
 ETOT =       -155.30378885     ENUC =        103.45568420
 EEXCH=        -22.94782296

          --------------------------------------------------
          MONOMER EXCHANGE-REPULSION INTERACTION (OWN BASIS)
          --------------------------------------------------

          -------------
          GUESS OPTIONS
          -------------
          GUESS =MOSAVED           NORB  =       0          NORDER=       0
          MIX   =       F          PRTMO =       F          PUNMO =       F
          TOLZ  = 1.0E-08          TOLE  = 1.0E-05
          SYMDEN=       F          PURIFY=       F

 INITIAL GUESS ORBITALS GENERATED BY MOSAVED  ROUTINE.

 STATISTICS FOR GENERATION OF SYMMETRY ORBITAL -Q- MATRIX
 NUMBER OF CARTESIAN ATOMIC ORBITALS=        154
 NUMBER OF SPHERICAL CONTAMINANTS DROPPED=     8
 NUMBER OF LINEARLY DEPENDENT MOS DROPPED=     0
 TOTAL NUMBER OF MOS IN VARIATION SPACE=     146
 ...... END OF INITIAL ORBITAL SELECTION ......
 CPU     0: STEP CPU TIME=     0.01 TOTAL CPU TIME=         23.8 (      0.4 MIN)
 TOTAL WALL CLOCK TIME=         24.2 SECONDS, CPU UTILIZATION IS    98.36%

          ---------------------------
                  UHF SCF CALCULATION
          ---------------------------

 FINAL UHF ENERGY IS     -154.6254914463 AFTER   1 ITERATIONS
 ...... END OF UHF CALCULATION ......
 CPU     0: STEP CPU TIME=     0.08 TOTAL CPU TIME=         23.9 (      0.4 MIN)
 TOTAL WALL CLOCK TIME=         24.3 SECONDS, CPU UTILIZATION IS    98.33%

 XEDA STEP ENERGY SUMMATION
 ETOT =       -154.62549145     ENUC =        103.45568420

          ---------------------------------------------
          MONOMER ELECTROSTATIC INTERACTION (ALL BASIS)
          ---------------------------------------------

          -------------
          GUESS OPTIONS
          -------------
          GUESS =MOSAVED           NORB  =       0          NORDER=       0
          MIX   =       F          PRTMO =       F          PUNMO =       F
          TOLZ  = 1.0E-08          TOLE  = 1.0E-05
          SYMDEN=       F          PURIFY=       F

 INITIAL GUESS ORBITALS GENERATED BY MOSAVED  ROUTINE.

 STATISTICS FOR GENERATION OF SYMMETRY ORBITAL -Q- MATRIX
 NUMBER OF CARTESIAN ATOMIC ORBITALS=        154
 NUMBER OF SPHERICAL CONTAMINANTS DROPPED=     8
 NUMBER OF LINEARLY DEPENDENT MOS DROPPED=     0
 TOTAL NUMBER OF MOS IN VARIATION SPACE=     146
 ...... END OF INITIAL ORBITAL SELECTION ......
 CPU     0: STEP CPU TIME=     0.01 TOTAL CPU TIME=         23.9 (      0.4 MIN)
 TOTAL WALL CLOCK TIME=         24.3 SECONDS, CPU UTILIZATION IS    98.33%

          ---------------------------
                  UHF SCF CALCULATION
          ---------------------------

 FINAL UHF ENERGY IS     -155.3102060850 AFTER   1 ITERATIONS
 ...... END OF UHF CALCULATION ......
 CPU     0: STEP CPU TIME=     0.08 TOTAL CPU TIME=         24.0 (      0.4 MIN)
 TOTAL WALL CLOCK TIME=         24.4 SECONDS, CPU UTILIZATION IS    98.30%

          -------------
          GUESS OPTIONS
          -------------
          GUESS =MOSAVED           NORB  =       0          NORDER=       0
          MIX   =       F          PRTMO =       F          PUNMO =       F
          TOLZ  = 1.0E-08          TOLE  = 1.0E-05
          SYMDEN=       F          PURIFY=       F

 INITIAL GUESS ORBITALS GENERATED BY MOSAVED  ROUTINE.

 STATISTICS FOR GENERATION OF SYMMETRY ORBITAL -Q- MATRIX
 NUMBER OF CARTESIAN ATOMIC ORBITALS=        154
 NUMBER OF SPHERICAL CONTAMINANTS DROPPED=     8
 NUMBER OF LINEARLY DEPENDENT MOS DROPPED=     0
 TOTAL NUMBER OF MOS IN VARIATION SPACE=     146
 ...... END OF INITIAL ORBITAL SELECTION ......
 CPU     0: STEP CPU TIME=     0.01 TOTAL CPU TIME=         24.0 (      0.4 MIN)
 TOTAL WALL CLOCK TIME=         24.4 SECONDS, CPU UTILIZATION IS    98.30%

          ---------------------------
                  UHF SCF CALCULATION
          ---------------------------

 DIRECT SCF CALCULATION, SCHWRZ=T   FDIFF=T
 SCHWARZ INEQUALITY OVERHEAD:     11935 INTEGRALS, T=        0.00

 FINAL UHF ENERGY IS     -332.2106443183 AFTER   1 ITERATIONS
 ...... END OF UHF CALCULATION ......
 CPU     0: STEP CPU TIME=     0.28 TOTAL CPU TIME=         24.3 (      0.4 MIN)
 TOTAL WALL CLOCK TIME=         24.7 SECONDS, CPU UTILIZATION IS    98.29%

 XEDA STEP ENERGY SUMMATION
 ETOT =       -155.31020609     ENUC =        103.45568420
 EEXCH=        -22.94840999

          --------------------------------------------------
          MONOMER EXCHANGE-REPULSION INTERACTION (ALL BASIS)
          --------------------------------------------------

          -------------
          GUESS OPTIONS
          -------------
          GUESS =MOSAVED           NORB  =       0          NORDER=       0
          MIX   =       F          PRTMO =       F          PUNMO =       F
          TOLZ  = 1.0E-08          TOLE  = 1.0E-05
          SYMDEN=       F          PURIFY=       F

 INITIAL GUESS ORBITALS GENERATED BY MOSAVED  ROUTINE.

 STATISTICS FOR GENERATION OF SYMMETRY ORBITAL -Q- MATRIX
 NUMBER OF CARTESIAN ATOMIC ORBITALS=        154
 NUMBER OF SPHERICAL CONTAMINANTS DROPPED=     8
 NUMBER OF LINEARLY DEPENDENT MOS DROPPED=     0
 TOTAL NUMBER OF MOS IN VARIATION SPACE=     146
 ...... END OF INITIAL ORBITAL SELECTION ......
 CPU     0: STEP CPU TIME=     0.01 TOTAL CPU TIME=         24.3 (      0.4 MIN)
 TOTAL WALL CLOCK TIME=         24.7 SECONDS, CPU UTILIZATION IS    98.29%

          ---------------------------
                  UHF SCF CALCULATION
          ---------------------------

 FINAL UHF ENERGY IS     -154.6303109762 AFTER   1 ITERATIONS
 ...... END OF UHF CALCULATION ......
 CPU     0: STEP CPU TIME=     0.08 TOTAL CPU TIME=         24.4 (      0.4 MIN)
 TOTAL WALL CLOCK TIME=         24.8 SECONDS, CPU UTILIZATION IS    98.26%

 XEDA STEP ENERGY SUMMATION
 ETOT =       -154.63031098     ENUC =        103.45568420

          --------------------------------
          RESULTS OF INTERACTION ANALYSIS
          --------------------------------

     ENERGY TERMS
     T   ELECTRON KINETIC AND COULOMB POTENTIAL
     X   E-E EXCHANGE COMBINE WITH DIAGNANAL VALUE
     N   NUCLEUS-NUCLEUS REPULSION ENERGY

 --------------
 MONOMER ENERGY
 --------------

 MONOMER    1

                   OWN BASIS           ALL BASIS

 T              -93.93635315        -93.93660984
 X              -11.31297900        -11.31328150
 N               27.87194890         27.87194890
 EC              -0.47436287         -0.47487645
 E              -77.85174612        -77.85281889

 MONOMER    2

                   OWN BASIS           ALL BASIS

 T              -93.93633529        -93.93659233
 X              -11.31298053        -11.31327853
 N               27.87193239         27.87193239
 EC              -0.47436232         -0.47489839
 E              -77.85174575        -77.85283687

 ------------------------------------------------------------
 SUPER MOLECULE ENERGY  USING NON-ANTISYMMETRIC WAVEFUNCTION
 (ELECTROSTATIC ENERGY: T N CHANGE)
 ------------------------------------------------------------

              FROM OWN BASIS      FROM ALL BASIS
 T             -235.81165009       -235.81748029
 X              -22.62595952        -22.62656004
 N              103.45568420        103.45568420
 E             -154.98192541       -154.98835613

 ----------------------------------------------------------------------
 SUPER MOLECULE ENERGY  USING ANTISYMMETRIC NONORTHONORMAL WAVEFUNCTION
 (EXCHANGE ENERGY: ONLY X CHANGES)
 ----------------------------------------------------------------------

              FROM OWN BASIS      FROM ALL BASIS
 T             -235.81165009       -235.81748029
 X              -22.94782296        -22.94840999
 N              103.45568420        103.45568420
 E             -155.30378885       -155.31020609

 -----------------------------------------------------------------------
 SUPER MOLECULE ENERGY  USING ANTISYMMETRIC AND ORTHONORMAL WAVEFUNCTION
 (REPULSION ENERGY: T X CHANGE)
 -----------------------------------------------------------------------

              FROM OWN BASIS      FROM ALL BASIS
 T+X           -258.08117564       -258.08599517
 N              103.45568420        103.45568420
 E             -154.62549145       -154.63031098

 ---------------------------------------------
 SUPER MOLECULE ENERGY  USING SCF WAVEFUNCTION
 (POLARIZATION ENERGY: T X CHANGE)
 ---------------------------------------------
 T+X           -258.36550612
 N              103.45568420
 EC              -0.98589353
 E             -155.89571545


                   *******************************
                   SUMMARY OF INTERACTION ENERGIES
                     XEDA IN XIAMEN UNIVERSITY    
                    - ZHEN TANG AND PEIFENG SU -  
                   *******************************


 -------------
 OWN BASIS SET                                       HARTREE          KCAL/MOL
 -------------
 ELECTROSTATIC ENERGY                  ES=         -0.227159           -142.54
 EXCHANGE ENERGY                       EX=         -0.321863           -201.97
 REPULSION ENERGY                     REP=          0.678297            425.64
 POLARIZATION ENERGY                  POL=         -0.284330           -178.42
 ELECTRON CORRELATION                CORR=         -0.037168            -23.32
 TOTAL INTERACTION ENERGY               E=         -0.192224           -120.62
  

 -------------
 ALL BASIS SET                                       HARTREE          KCAL/MOL
 -------------
 ELECTROSTATIC ENERGY                  ES=         -0.232475           -145.88
 EXCHANGE ENERGY                       EX=         -0.321850           -201.96
 REPULSION ENERGY                     REP=          0.679895            426.64
 POLARIZATION ENERGY                  POL=         -0.279511           -175.40
 ELECTRON CORRELATION                CORR=         -0.036119            -22.66
 TOTAL INTERACTION ENERGY               E=         -0.190060           -119.26
  

                     ***************************
                     END OF INTERACTION ANALYSIS
                     ***************************

              1301896  WORDS OF DYNAMIC MEMORY USED
 EXECUTION OF GAMESS TERMINATED NORMALLY 14:32:24 25-DEC-2023    
 DDI: 263640 bytes (0.3 MB / 0 MWords) used by master data server.

 ----------------------------------------
 CPU timing information for all processes
 ========================================
 0: 23.738 + 0.628 = 24.367
 1: 23.549 + 0.517 = 24.67
 2: 23.545 + 0.521 = 24.67
 3: 23.537 + 0.476 = 24.13
 4: 23.533 + 0.584 = 24.118
 5: 23.487 + 0.511 = 23.999
 6: 23.490 + 0.571 = 24.62
 7: 23.418 + 0.555 = 23.973
 8: 23.509 + 0.606 = 24.116
 9: 23.492 + 0.498 = 23.990
 10: 23.445 + 0.537 = 23.982
 11: 23.461 + 0.518 = 23.980
 12: 23.470 + 0.591 = 24.62
 13: 23.511 + 0.481 = 23.992
 14: 23.462 + 0.582 = 24.44
 15: 23.432 + 0.515 = 23.947
 ----------------------------------------
 ddikick.x: exited gracefully.
----- accounting info -----
Files used on the master node w013 were:
-rw-r--r-- 1 xacs0647 10000  2703863 Dec 25 14:32 /job_dir/8_1685758/8.dat
-rw-r--r-- 1 xacs0647 10000      238 Dec 25 14:32 /job_dir/8_1685758/8.err
-rw-r--r-- 1 xacs0647 10000      837 Dec 25 14:31 /job_dir/8_1685758/8.F05
-rw-r--r-- 1 xacs0647 10000 50764512 Dec 25 14:32 /job_dir/8_1685758/8.F08
-rw-r--r-- 1 xacs0647 10000 52384656 Dec 25 14:32 /job_dir/8_1685758/8.F08.001
-rw-r--r-- 1 xacs0647 10000 48244288 Dec 25 14:32 /job_dir/8_1685758/8.F08.002
-rw-r--r-- 1 xacs0647 10000 50944528 Dec 25 14:32 /job_dir/8_1685758/8.F08.003
-rw-r--r-- 1 xacs0647 10000 51124544 Dec 25 14:32 /job_dir/8_1685758/8.F08.004
-rw-r--r-- 1 xacs0647 10000 42123744 Dec 25 14:32 /job_dir/8_1685758/8.F08.005
-rw-r--r-- 1 xacs0647 10000 52024624 Dec 25 14:32 /job_dir/8_1685758/8.F08.006
-rw-r--r-- 1 xacs0647 10000 56525024 Dec 25 14:32 /job_dir/8_1685758/8.F08.007
-rw-r--r-- 1 xacs0647 10000 52024624 Dec 25 14:32 /job_dir/8_1685758/8.F08.008
-rw-r--r-- 1 xacs0647 10000 49324384 Dec 25 14:32 /job_dir/8_1685758/8.F08.009
-rw-r--r-- 1 xacs0647 10000 45904080 Dec 25 14:32 /job_dir/8_1685758/8.F08.010
-rw-r--r-- 1 xacs0647 10000 49324384 Dec 25 14:32 /job_dir/8_1685758/8.F08.011
-rw-r--r-- 1 xacs0647 10000 49144368 Dec 25 14:32 /job_dir/8_1685758/8.F08.012
-rw-r--r-- 1 xacs0647 10000 51664592 Dec 25 14:32 /job_dir/8_1685758/8.F08.013
-rw-r--r-- 1 xacs0647 10000 54364832 Dec 25 14:32 /job_dir/8_1685758/8.F08.014
-rw-r--r-- 1 xacs0647 10000 50404480 Dec 25 14:32 /job_dir/8_1685758/8.F08.015
-rw-r--r-- 1 xacs0647 10000  5758720 Dec 25 14:32 /job_dir/8_1685758/8.F10
-rw-r--r-- 1 xacs0647 10000      837 Dec 25 14:31 /job_dir/8_1685758/8.inp
-rw-r--r-- 1 xacs0647 10000  2403385 Dec 25 14:32 /job_dir/8_1685758/8.out
Mon Dec 25 14:32:27 CST 2023
0.095u 0.052s 0:27.97 0.5%	0+0k 0+32io 0pf+0w
