----- GAMESS execution script 'rungms' -----
This job is running on host w014
under operating system Linux at Mon Dec 25 14:31:59 CST 2023
Available scratch disk space (Kbyte units) at beginning of the job is
Filesystem              1K-blocks    Used Available Use% Mounted on
/dev/mapper/system-root 932514944 2827440 929687504   1% /
GAMESS temporary binary files will be written to /job_dir/9_1685759
GAMESS supplementary output files will be written to /job_dir/9_1685759
Copying input file ./9.inp to your run's scratch directory...
 
Assuming a single but multicore node.
 

 Distributed Data Interface kickoff program.
 Initiating 16 compute processes on 1 nodes to run the following command:
 /share/apps/xeda-apps/xeda-td/gamess.00.x 9 

          *******************************************************
          *                                                     *
          *          GAMESS VERSION = 30 SEP 2020 (R2)          *
          *                                                     *
          *              doi.org/10.1063/5.0005188              *
          *                                                     *
          **************** 64 BIT LINUX VERSION *****************

  GAMESS HAS BEEN MADE POSSIBLE WITH IMPORTANT CONTRIBUTIONS FROM
  THE FOLLOWING INDIVIDUALS (IN ALPHABETICAL ORDER):

     IVANA ADAMOVIC, CHRISTINE AIKENS, TOMOKO AKAMA,
     YURI ALEXEEV, YURIKO AOKI, POOJA ARORA, TOSHIO ASADA,
     ANDREY ASADCHEV, KIM K. BALDRIDGE, PRADIPTA BANDYOPADHYAY,
     MARIA BARYSZ, ROB BELL, JONATHAN BENTZ, COLLEEN BERTONI,
     JERRY A. BOATZ, BRETT BODE, KURT BRORSEN, KURT R. BRORSEN,
     LAIMUTIS BYTAUTAS, CALEB CARLIN, LAURA CARRINGTON,
     GALINA CHABAN, BENOIT CHAMPAGNE, WEI CHEN, MAHITO CHIBA,
     DAN CHIPMAN, CHEOL HO CHOI, TANNER CULPITT,
     DIPAYAN DATTA, PAUL DAY, ALBERT DEFUSCO,
     NUWAN DESILVA, J. EMILIANO DEUSTUA,
     TIM DUDLEY, MICHEL DUPUIS, STEVEN T. ELBERT,
     DMITRI FEDOROV, ALEX FINDLATER, GRAHAM FLETCHER,
     MARK FREITAG, CHRISTIAN FRIEDL, DAVID GARMER,
     IGOR S. GERASIMOV, KURT GLAESEMANN, MARK S. GORDON,
     JEFFREY GOUR, FENG LONG GU, EMILIE B. GUIDEZ,
     ANASTASIA GUNINA, SHARON HAMMES-SCHIFFER, MASATAKE HARUTA,
     KIMIHIKO HIRAO, YASUHIRO IKABATA, TZVETELIN IORDANOV,
     STEPHAN IRLE, KAZUYA ISHIMURA, JOE IVANIC, FRANK JENSEN,
     JAN H. JENSEN, VISVALDAS KAIRYS, MUNEAKI KAMIYA,
     MICHIO KATOUDA, NAOAKI KAWAKAMI, DAN KEMP, BERNARD KIRTMAN,
     KAZUO KITAURA, MARIUSZ KLOBUKOWSKI, MASATO KOBAYASHI,
     PRAKASHAN KORAMBATH, JACEK KORCHOWIEC, SHIRO KOSEKI,
     KAROL KOWALSKI, JIMMY KROMANN, STANISLAW KUCHARSKI,
     HENRY KURTZ, SAROM SOK LEANG, HUI LI, SHUHUA LI, WEI LI,
     JESSE LUTZ, ALEKSANDR O. LYKHIN, MARCIN MAKOWSKI,
     JOANI MATO, NIKITA MATSUNAGA, BENEDETTA MENNUCCI,
     GRANT MERRILL, NORIYUKI MINEZAWA, VLADIMIR MIRONOV,
     EISAKU MIYOSHI, JOHN A. MONTGOMERY JR., HIROTOSHI MORI,
     JONATHAN MULLIN, MONIKA MUSIAL, SHIGERU NAGASE,
     TAKESHI NAGATA, HIROMI NAKAI, TAKAHITO NAKAJIMA,
     YUYA NAKAJIMA, HARUYUKI NAKANO, HIROYA NAKATA, SEAN NEDD,
     HEATHER NETZLOFF, KIET A. NGUYEN, YOSHIO NISHIMOTO,
     BOSILJKA NJEGIC, RYAN OLSON, MIKE PAK, ROBERTO PEVERATI,
     BUU PHAM, PIOTR PIECUCH, ANNA POMOGAEVA, DAVID POOLE,
     SPENCER PRUITT, OLIVIER QUINET, LUKE ROSKOP,
     KLAUS RUEDENBERG, ANDREW SAND, TOSAPORN SATTASATHUCHANA,
     NOZOMI SAWADA, MICHAEL W. SCHMIDT, PATRICK E. SCHNEIDER,
     JUNJI SEINO, PRACHI SHARMA, JUN SHEN, JIM SHOEMAKER,
     YINAN SHU, DEJUN SI, JONATHAN SKONE, LYUDMILA SLIPCHENKO,
     TONY SMITH, JIE SONG, MARK SPACKMAN, CASPER STEINMANN,
     WALT STEVENS, PEIFENG SU, SHUJUN SU, CHET SWALINA,
     TETSUYA TAKETSUGU, ZHEN TAO, NANDUN THELLAMUREGE
     SEIKEN TOKURA, JACOPO TOMASI, TSUGUKI TOUMA, TAKAO TSUNEDA,
     HIROAKI UMEDA, JORGE LUIS GALVEZ VALLEJO, YALI WANG,
     SIMON WEBB, AARON WEST, THERESA L. WINDUS, MARTA WLOCH,
     PENG XU, KIYOSHI YAGI, SUSUMU YANAGISAWA, YANG YANG,
     SOOHAENG YOO, TAKESHI YOSHIKAWA, FEDERICO ZAHARIEV,
     TOBY ZENG

  WHO ARE SUPPORTED BY THEIR INSTITUTION/UNIVERSITY/COMPANY/GROUP
  (IN ALPHABETICAL ORDER):

     EP ANALYTICS, FACULTES UNIVERSITAIRES NOTRE-DAME DE LA PAIX,
     INSTITUTE FOR MOLECULAR SCIENCE, IOWA STATE UNIVERSITY,
     JACKSON STATE UNIVERSITY, JOHANNES KEPLER UNIVERSITY LINZ,
     KYUSHU UNIVERSITY, MICHIGAN STATE UNIVERSITY,
     MIE UNIVERSITY, MOSCOW STATE UNIVERSITY,
     N. COPERNICUS UNIVERSITY, NAGOYA UNIVERSITY,
     NANJING UNIVERSITY, NAT. INST. OF ADVANCED INDUSTRIAL
     SCIENCE AND TECHNOLOGY, NATIONAL INST. OF STANDARDS AND
     TECHNOLOGY, NESMEYANOV INSTITUTE OF ORGANOELEMENT COMPOUNDS
     OF RUSSIAN ACADEMY OF SCIENCES, OSAKA PREFECTURE UNIVERSITY,
     PENNSYLVANIA STATE UNIVERSITY, TOKYO INSTITUTE OF TECHNOLOGY,
     UNIVERSITY OF AARHUS, UNIVERSITY OF ALBERTA,
     UNIVERSITY OF CALIFORNIA AT SANTA BARBARA,
     UNIVERSITY OF COPENHAGEN, UNIVERSITY OF IOWA,
     UNIVERSITY OF MEMPHIS, UNIVERSITY OF MINNESOTA,
     UNIVERSITY OF NEBRASKA, UNIVERSITY OF NEW ENGLAND,
     UNIVERSITY OF NOTRE DAME, UNIVERSITY OF PISA,
     UNIVERSITY OF SILESIA, UNIVERSITY OF TOKYO,
     UNIVERSITY OF ZURICH, WASEDA UNIVERSITY, YALE UNIVERSITY

  GAMESS SOFTWARE MANAGEMENT TEAM FOR THIS RELEASE:
     MARK S. GORDON (TEAM LEAD),
     BRETT BODE (SENIOR ADVISOR),
     GIUSEPPE BARCA,
     COLLEEN BERTONI,
     KRISTOPHER KEIPERT (ADVISOR),
     SAROM S. LEANG (DEVELOPMENT LEAD),
     BUU PHAM,
     JORGE LUIS GALVEZ VALLEJO (WEBSITE ADMINISTRATOR),
     PENG XU


 PARALLEL VERSION RUNNING ON       16 PROCESSORS IN        1 NODES.

 EXECUTION OF GAMESS BEGUN 14:31:59 25-DEC-2023    

            ECHO OF THE FIRST FEW INPUT CARDS -
 INPUT CARD> $CONTRL SCFTYP=UHF RUNTYP=EDA dfttyp=B3LYP ispher=1 icharg=0 mult=1 $END       
 INPUT CARD> $SYSTEM  mwords=150 memddi=150 $END                                            
 INPUT CARD> $BASIS gbasis=accd $END                                                        
 INPUT CARD> $LMOEDA MATOM(1)=5 5 MCHARG(1)=0 0 MMULT(1)=2 -2 edatyp=gks $end               
 INPUT CARD> $scf DIIS=.TRUE. ETHRSH=2.0 SWDIIS=0.005 $end                                  
 INPUT CARD> $data                                                                          
 INPUT CARD> EDA calculation with XEDA 1.0                                                  
 INPUT CARD> c1                                                                             
 INPUT CARD>C   6   -0.1950671090    0.8991695766   -1.3675260072                           
 INPUT CARD>C   6   -0.1950671090    0.8991695766   -0.0109205169                           
 INPUT CARD>H   1   -0.2118364404    1.8562704594    0.5249959887                           
 INPUT CARD>H   1   -0.2213659981   -0.0307749218   -1.9430438213                           
 INPUT CARD>H   1   -0.1793594870    1.8270764098   -1.9439547755                           
 INPUT CARD>C   6   -0.1950671090   -0.3295331189    0.8367054746                           
 INPUT CARD>C   6    0.5593688228   -1.4311058128    0.5964040384                           
 INPUT CARD>H   1    1.2555441986   -1.4792565556   -0.2460529867                           
 INPUT CARD>H   1    0.5124705051   -2.3133399779    1.2390456411                           
 INPUT CARD>H   1   -0.8478695762   -0.3088654933    1.7181471099                           
 INPUT CARD> $end                                                                           
  150000000 WORDS OF MEMORY AVAILABLE

     BASIS OPTIONS
     -------------
     GBASIS=ACCD         IGAUSS=       0      POLAR=NONE    
     NDFUNC=       0     NFFUNC=       0     DIFFSP=       F
     NPFUNC=       0      DIFFS=       F     BASNAM=        


     RUN TITLE
     ---------
  EDA calculation with XEDA 1.0                                                  

 THE POINT GROUP OF THE MOLECULE IS C1      
 THE ORDER OF THE PRINCIPAL AXIS IS     0

 ATOM      ATOMIC                      COORDINATES (BOHR)
           CHARGE         X                   Y                   Z
 C           6.0    -0.3686233852        1.6991841163       -2.5842494347
 C           6.0    -0.3686233852        1.6991841163       -0.0206367846
 H           1.0    -0.4003128266        3.5078425274        0.9920985633
 H           1.0    -0.4183210794       -0.0581561695       -3.6718204044
 H           1.0    -0.3389402837        3.4526737732       -3.6735418582
 C           6.0    -0.3686233852       -0.6227272986        1.5811440794
 C           6.0     1.0570538012       -2.7043978456        1.1270402105
 H           1.0     2.3726345008       -2.7953895556       -0.4649727233
 H           1.0     0.9684288314       -4.3715786747        2.3414567480
 H           1.0    -1.6022411723       -0.5836711494        3.2468272443

          INTERNUCLEAR DISTANCES (ANGS.)
          ------------------------------

                1 C          2 C          3 H          4 H          5 H     

   1 C       0.0000000    1.3566055 *  2.1208401 *  1.0939420 *  1.0924870 *
   2 C       1.3566055 *  0.0000000    1.0970551 *  2.1444321 *  2.1442666 *
   3 H       2.1208401 *  1.0970551 *  0.0000000    3.1068073    2.4693369 *
   4 H       1.0939420 *  2.1444321 *  3.1068073    0.0000000    1.8583264 *
   5 H       1.0924870 *  2.1442666 *  2.4693369 *  1.8583264 *  0.0000000  
   6 C       2.5235583 *  1.4927090 *  2.2079813 *  2.7958817 *  3.5189889  
   7 C       3.1394869    2.5235293 *  3.3773806    3.0032098    4.1970101  
   8 H       3.0031460    2.7957953 *  3.7247098    2.6756571 *  3.9841758  
   9 H       4.1970279    3.5189832    4.2918689    3.9842581    5.2681276  
  10 H       3.3774070    2.2079798 *  2.5526381 *  3.7248034    4.2918695  

                6 C          7 C          8 H          9 H         10 H     

   1 C       2.5235583 *  3.1394869    3.0031460    4.1970279    3.3774070  
   2 C       1.4927090 *  2.5235293 *  2.7957953 *  3.5189832    2.2079798 *
   3 H       2.2079813 *  3.3773806    3.7247098    4.2918689    2.5526381 *
   4 H       2.7958817 *  3.0032098    2.6756571 *  3.9842581    3.7248034  
   5 H       3.5189889    4.1970101    3.9841758    5.2681276    4.2918695  
   6 C       0.0000000    1.3566063 *  2.1444120 *  2.1442893 *  1.0970495 *
   7 C       1.3566063 *  0.0000000    1.0939435 *  1.0924856 *  2.1208609 *
   8 H       2.1444120 *  1.0939435 *  0.0000000    1.8583249 *  3.1068065  
   9 H       2.1442893 *  1.0924856 *  1.8583249 *  0.0000000    2.4694091 *
  10 H       1.0970495 *  2.1208609 *  3.1068065    2.4694091 *  0.0000000  

  * ... LESS THAN  3.000


     ATOMIC BASIS SET
     ----------------
 THE CONTRACTED PRIMITIVE FUNCTIONS HAVE BEEN UNNORMALIZED
 THE CONTRACTED BASIS FUNCTIONS ARE NOW NORMALIZED TO UNITY

  SHELL TYPE  PRIMITIVE        EXPONENT          CONTRACTION COEFFICIENT(S)

 C         

      1   S       1          6665.0000000    0.000691583963
      1   S       2          1000.0000000    0.005325796153
      1   S       3           228.0000000    0.027060721042
      1   S       4            64.7100000    0.101656846141
      1   S       5            21.0600000    0.274574823617
      1   S       6             7.4950000    0.448294318924
      1   S       7             2.7970000    0.284902610715
      1   S       8             0.5215000    0.015194859206

      2   S       9          6665.0000000   -0.000293269653
      2   S      10          1000.0000000   -0.002318035474
      2   S      11           228.0000000   -0.011499786039
      2   S      12            64.7100000   -0.046826727010
      2   S      13            21.0600000   -0.128466168750
      2   S      14             7.4950000   -0.301266272463
      2   S      15             2.7970000   -0.255630702330
      2   S      16             0.5215000    1.093793361012

      3   S      17             0.1596000    1.000000000000

      4   P      18             9.4390000    0.056979251590
      4   P      19             2.0020000    0.313207211501
      4   P      20             0.5456000    0.760376741738

      5   P      21             0.1517000    1.000000000000

      6   D      22             0.5500000    1.000000000000

      7   S      23             0.0469000    1.000000000000

      8   P      24             0.0404100    1.000000000000

      9   D      25             0.1510000    1.000000000000

 C         

     10   S      26          6665.0000000    0.000691583963
     10   S      27          1000.0000000    0.005325796153
     10   S      28           228.0000000    0.027060721042
     10   S      29            64.7100000    0.101656846141
     10   S      30            21.0600000    0.274574823617
     10   S      31             7.4950000    0.448294318924
     10   S      32             2.7970000    0.284902610715
     10   S      33             0.5215000    0.015194859206

     11   S      34          6665.0000000   -0.000293269653
     11   S      35          1000.0000000   -0.002318035474
     11   S      36           228.0000000   -0.011499786039
     11   S      37            64.7100000   -0.046826727010
     11   S      38            21.0600000   -0.128466168750
     11   S      39             7.4950000   -0.301266272463
     11   S      40             2.7970000   -0.255630702330
     11   S      41             0.5215000    1.093793361012

     12   S      42             0.1596000    1.000000000000

     13   P      43             9.4390000    0.056979251590
     13   P      44             2.0020000    0.313207211501
     13   P      45             0.5456000    0.760376741738

     14   P      46             0.1517000    1.000000000000

     15   D      47             0.5500000    1.000000000000

     16   S      48             0.0469000    1.000000000000

     17   P      49             0.0404100    1.000000000000

     18   D      50             0.1510000    1.000000000000

 H         

     19   S      51            13.0100000    0.033498726390
     19   S      52             1.9620000    0.234800801174
     19   S      53             0.4446000    0.813682957883

     20   S      54             0.1220000    1.000000000000

     21   P      55             0.7270000    1.000000000000

     22   S      56             0.0297400    1.000000000000

     23   P      57             0.1410000    1.000000000000

 H         

     24   S      58            13.0100000    0.033498726390
     24   S      59             1.9620000    0.234800801174
     24   S      60             0.4446000    0.813682957883

     25   S      61             0.1220000    1.000000000000

     26   P      62             0.7270000    1.000000000000

     27   S      63             0.0297400    1.000000000000

     28   P      64             0.1410000    1.000000000000

 H         

     29   S      65            13.0100000    0.033498726390
     29   S      66             1.9620000    0.234800801174
     29   S      67             0.4446000    0.813682957883

     30   S      68             0.1220000    1.000000000000

     31   P      69             0.7270000    1.000000000000

     32   S      70             0.0297400    1.000000000000

     33   P      71             0.1410000    1.000000000000

 C         

     34   S      72          6665.0000000    0.000691583963
     34   S      73          1000.0000000    0.005325796153
     34   S      74           228.0000000    0.027060721042
     34   S      75            64.7100000    0.101656846141
     34   S      76            21.0600000    0.274574823617
     34   S      77             7.4950000    0.448294318924
     34   S      78             2.7970000    0.284902610715
     34   S      79             0.5215000    0.015194859206

     35   S      80          6665.0000000   -0.000293269653
     35   S      81          1000.0000000   -0.002318035474
     35   S      82           228.0000000   -0.011499786039
     35   S      83            64.7100000   -0.046826727010
     35   S      84            21.0600000   -0.128466168750
     35   S      85             7.4950000   -0.301266272463
     35   S      86             2.7970000   -0.255630702330
     35   S      87             0.5215000    1.093793361012

     36   S      88             0.1596000    1.000000000000

     37   P      89             9.4390000    0.056979251590
     37   P      90             2.0020000    0.313207211501
     37   P      91             0.5456000    0.760376741738

     38   P      92             0.1517000    1.000000000000

     39   D      93             0.5500000    1.000000000000

     40   S      94             0.0469000    1.000000000000

     41   P      95             0.0404100    1.000000000000

     42   D      96             0.1510000    1.000000000000

 C         

     43   S      97          6665.0000000    0.000691583963
     43   S      98          1000.0000000    0.005325796153
     43   S      99           228.0000000    0.027060721042
     43   S     100            64.7100000    0.101656846141
     43   S     101            21.0600000    0.274574823617
     43   S     102             7.4950000    0.448294318924
     43   S     103             2.7970000    0.284902610715
     43   S     104             0.5215000    0.015194859206

     44   S     105          6665.0000000   -0.000293269653
     44   S     106          1000.0000000   -0.002318035474
     44   S     107           228.0000000   -0.011499786039
     44   S     108            64.7100000   -0.046826727010
     44   S     109            21.0600000   -0.128466168750
     44   S     110             7.4950000   -0.301266272463
     44   S     111             2.7970000   -0.255630702330
     44   S     112             0.5215000    1.093793361012

     45   S     113             0.1596000    1.000000000000

     46   P     114             9.4390000    0.056979251590
     46   P     115             2.0020000    0.313207211501
     46   P     116             0.5456000    0.760376741738

     47   P     117             0.1517000    1.000000000000

     48   D     118             0.5500000    1.000000000000

     49   S     119             0.0469000    1.000000000000

     50   P     120             0.0404100    1.000000000000

     51   D     121             0.1510000    1.000000000000

 H         

     52   S     122            13.0100000    0.033498726390
     52   S     123             1.9620000    0.234800801174
     52   S     124             0.4446000    0.813682957883

     53   S     125             0.1220000    1.000000000000

     54   P     126             0.7270000    1.000000000000

     55   S     127             0.0297400    1.000000000000

     56   P     128             0.1410000    1.000000000000

 H         

     57   S     129            13.0100000    0.033498726390
     57   S     130             1.9620000    0.234800801174
     57   S     131             0.4446000    0.813682957883

     58   S     132             0.1220000    1.000000000000

     59   P     133             0.7270000    1.000000000000

     60   S     134             0.0297400    1.000000000000

     61   P     135             0.1410000    1.000000000000

 H         

     62   S     136            13.0100000    0.033498726390
     62   S     137             1.9620000    0.234800801174
     62   S     138             0.4446000    0.813682957883

     63   S     139             0.1220000    1.000000000000

     64   P     140             0.7270000    1.000000000000

     65   S     141             0.0297400    1.000000000000

     66   P     142             0.1410000    1.000000000000

 TOTAL NUMBER OF BASIS SET SHELLS             =   66
 NUMBER OF CARTESIAN GAUSSIAN BASIS FUNCTIONS =  154
 NOTE: THIS RUN WILL RESTRICT THE MO VARIATION SPACE TO SPHERICAL HARMONICS.
 THE NUMBER OF ORBITALS KEPT IN THE VARIATIONAL SPACE WILL BE PRINTED LATER.
 NUMBER OF ELECTRONS                          =   30
 CHARGE OF MOLECULE                           =    0
 SPIN MULTIPLICITY                            =    1
 NUMBER OF OCCUPIED ORBITALS (ALPHA)          =   15
 NUMBER OF OCCUPIED ORBITALS (BETA )          =   15
 TOTAL NUMBER OF ATOMS                        =   10
 THE NUCLEAR REPULSION ENERGY IS      103.4363976575

 SELECTED MURRAY-HANDY-LAMING RADIAL GRID

 LEGACY BECKE'S FUZZY CELL METHOD

 SELECTED ORIGINAL BECKE'S PARTITION FUNCTION

     LEBEDEV GRID-BASED DFT OPTIONS
     ------------------------------
     DFTTYP=B3LYP   
     NRAD  =      96     NLEB  =     302
     NRAD0 =      24     NLEB0 =     110
     SWOFF =    5.00E-03 (PURE SCF -> DFT)
     SWITCH=    3.00E-04 (COARSE -> TIGHT GRID)
     THRESH=    0.00E+00 GTHRE=    1.00E+00

 GRIMME'S EMPIRICAL DISPERSION CORRECTION= F

     $CONTRL OPTIONS
     ---------------
 SCFTYP=UHF          RUNTYP=LMOEDA       EXETYP=RUN     
 MPLEVL=       0     CITYP =NONE         CCTYP =NONE         VBTYP =NONE    
 DFTTYP=B3LYP        TDDFT =NONE    
 MULT  =       1     ICHARG=       0     NZVAR =       0     COORD =UNIQUE  
 PP    =NONE         RELWFN=NONE         LOCAL =NONE         NUMGRD=       F
 ISPHER=       1     NOSYM =       0     MAXIT =      30     UNITS =ANGS    
 PLTORB=       F     MOLPLT=       F     AIMPAC=       F     FRIEND=        
 NPRINT=       7     IREST =       0     GEOM  =INPUT   
 NORMF =       0     NORMP =       0     ITOL  =      20     ICUT  =       9
 INTTYP=BEST         GRDTYP=BEST         QMTTOL= 1.0E-06

     $SYSTEM OPTIONS
     ---------------
  REPLICATED MEMORY=   150000000 WORDS (ON EVERY NODE).
 DISTRIBUTED MEMDDI=         150 MILLION WORDS IN AGGREGATE,
 MEMDDI DISTRIBUTED OVER  16 PROCESSORS IS     9375000 WORDS/PROCESSOR.
 TOTAL MEMORY REQUESTED ON EACH PROCESSOR=   159375000 WORDS.
 TIMLIM=      525600.00 MINUTES, OR     365.0 DAYS.
 PARALL= T  BALTYP=  DLB     KDIAG=    0  COREFL= F
 MXSEQ2=     300 MXSEQ3=     150  mem10=         0  mem22=         0

 Using Gaussians for PCM contribution to MEP, params: 0.10000E+01 0.10000E-07

          ----------------
          PROPERTIES INPUT
          ----------------

     MOMENTS            FIELD           POTENTIAL          DENSITY
 IEMOM =       1   IEFLD =       0   IEPOT =       0   IEDEN =       0
 WHERE =COMASS     WHERE =NUCLEI     WHERE =NUCLEI     WHERE =NUCLEI  
 OUTPUT=BOTH       OUTPUT=BOTH       OUTPUT=BOTH       OUTPUT=BOTH    
 IEMINT=       0   IEFINT=       0                     IEDINT=       0
                                                       MORB  =       0
          EXTRAPOLATION IN EFFECT
          DIIS IN EFFECT
          DIIS or SOSCF will be reset if energy rises
 ORBITAL PRINTING OPTION: NPREO=     1   154     2     1

     -------------------------------
     INTEGRAL TRANSFORMATION OPTIONS
     -------------------------------
     NWORD  =            0
     CUTOFF = 1.0E-09     MPTRAN =       0
     DIRTRF =       F     AOINTS =DUP     

          -----------------------------
          LOCALIZATION INPUT PARAMETERS
          -----------------------------
           LOCAL=RUEDNBRG      NOUTA=       0
          PRTLOC=       F      NOUTB=       0
          MAXLOC=     250     CVGLOC=1.00E-06
           FCORE=       F     SYMLOC=       F
          MOIDON=       F     EDCOMP=       F
          DIPDCM=       F      NPROT=       0
          QADDCM=       F     DEPRNT=       F
          POLNUM=       F     ORIENT=       F
          POLDYN=       F      VMTOL=1.50E-01
          NPRDTL=       2     IBOYAL=       1

          ----------------------
          INTEGRAL INPUT OPTIONS
          ----------------------
 NOPK  =       1 NORDER=       0 SCHWRZ=       T

     ------------------------------------------
     THE POINT GROUP IS C1 , NAXIS= 0, ORDER= 1
     ------------------------------------------

 -- VARIATIONAL SPACE WILL BE RESTRICTED TO PURE SPHERICAL HARMONICS ONLY --
 AFTER EXCLUDING CONTAMINANT COMBINATIONS FROM THE CARTESIAN GAUSSIAN BASIS
 SET, THE NUMBER OF SPHERICAL HARMONICS KEPT IN THE VARIATION SPACE IS  146

     DIMENSIONS OF THE SYMMETRY SUBSPACES ARE
 A   =  146

 ..... DONE SETTING UP THE RUN .....
 CPU     0: STEP CPU TIME=     0.03 TOTAL CPU TIME=          0.0 (      0.0 MIN)
 TOTAL WALL CLOCK TIME=          0.0 SECONDS, CPU UTILIZATION IS    80.99%

          --------------
          GKSEDA OPTIONS
          --------------
          NMOL  =       2          EDATYP=GKS     
          SUPBAS=       T          RDVECM=       F          ITRTN =       T

 *******************
 GKSEDA IS BEGINNING
 *******************

 NMOL =  2

 MONOMER     ATOM   CHARGE ELECTRON MULTIPLE
 -------------------------------------------
       1        5        0       15        2
       2        5        0       15       -2
 -------------------------------------------

 SAVING MOL INFO REQUIRES    598670 WORDS OF MEMORY.

          ********************
          1 ELECTRON INTEGRALS
          ********************
 ...... END OF ONE-ELECTRON INTEGRALS ......
 CPU     0: STEP CPU TIME=     0.01 TOTAL CPU TIME=          0.0 (      0.0 MIN)
 TOTAL WALL CLOCK TIME=          0.0 SECONDS, CPU UTILIZATION IS    82.96%

          -------------
          GUESS OPTIONS
          -------------
          GUESS =HUCKEL            NORB  =       0          NORDER=       0
          MIX   =       F          PRTMO =       F          PUNMO =       F
          TOLZ  = 1.0E-08          TOLE  = 1.0E-05
          SYMDEN=       F          PURIFY=       F

 INITIAL GUESS ORBITALS GENERATED BY HUCKEL   ROUTINE.
 HUCKEL GUESS REQUIRES    180842 WORDS.

 STATISTICS FOR GENERATION OF SYMMETRY ORBITAL -Q- MATRIX
 NUMBER OF CARTESIAN ATOMIC ORBITALS=        154
 NUMBER OF SPHERICAL CONTAMINANTS DROPPED=     8
 NUMBER OF LINEARLY DEPENDENT MOS DROPPED=     0
 TOTAL NUMBER OF MOS IN VARIATION SPACE=     146

 SYMMETRIES FOR INITIAL GUESS ORBITALS FOLLOW.  ALPHA SET(S).
    15 ORBITALS ARE OCCUPIED (    4 CORE ORBITALS).
     5=A        6=A        7=A        8=A        9=A       10=A       11=A   
    12=A       13=A       14=A       15=A       16=A       17=A       18=A   
    19=A       20=A       21=A       22=A       23=A       24=A       25=A   

 SYMMETRIES FOR INITIAL GUESS ORBITALS FOLLOW.   BETA SET(S).
    15 ORBITALS ARE OCCUPIED (    4 CORE ORBITALS).
     5=A        6=A        7=A        8=A        9=A       10=A       11=A   
    12=A       13=A       14=A       15=A       16=A       17=A       18=A   
    19=A       20=A       21=A       22=A       23=A       24=A       25=A   
 ...... END OF INITIAL ORBITAL SELECTION ......
 CPU     0: STEP CPU TIME=     0.01 TOTAL CPU TIME=          0.1 (      0.0 MIN)
 TOTAL WALL CLOCK TIME=          0.1 SECONDS, CPU UTILIZATION IS    86.94%

          -------------------------
          MONOMER  1 WITH OWN BASIS
          -------------------------

     ------------------------------------------
     THE POINT GROUP IS C1 , NAXIS= 0, ORDER= 1
     ------------------------------------------

 -- VARIATIONAL SPACE WILL BE RESTRICTED TO PURE SPHERICAL HARMONICS ONLY --
 AFTER EXCLUDING CONTAMINANT COMBINATIONS FROM THE CARTESIAN GAUSSIAN BASIS
 SET, THE NUMBER OF SPHERICAL HARMONICS KEPT IN THE VARIATION SPACE IS   73

     DIMENSIONS OF THE SYMMETRY SUBSPACES ARE
 A   =   73

          ********************
          1 ELECTRON INTEGRALS
          ********************
 ...... END OF ONE-ELECTRON INTEGRALS ......
 CPU     0: STEP CPU TIME=     0.01 TOTAL CPU TIME=          0.1 (      0.0 MIN)
 TOTAL WALL CLOCK TIME=          0.1 SECONDS, CPU UTILIZATION IS    87.84%

          -------------
          GUESS OPTIONS
          -------------
          GUESS =HUCKEL            NORB  =       0          NORDER=       0
          MIX   =       F          PRTMO =       F          PUNMO =       F
          TOLZ  = 1.0E-08          TOLE  = 1.0E-05
          SYMDEN=       F          PURIFY=       F

 INITIAL GUESS ORBITALS GENERATED BY HUCKEL   ROUTINE.
 HUCKEL GUESS REQUIRES     47410 WORDS.

 STATISTICS FOR GENERATION OF SYMMETRY ORBITAL -Q- MATRIX
 NUMBER OF CARTESIAN ATOMIC ORBITALS=         77
 NUMBER OF SPHERICAL CONTAMINANTS DROPPED=     4
 NUMBER OF LINEARLY DEPENDENT MOS DROPPED=     0
 TOTAL NUMBER OF MOS IN VARIATION SPACE=      73

 SYMMETRIES FOR INITIAL GUESS ORBITALS FOLLOW.  ALPHA SET(S).
     8 ORBITALS ARE OCCUPIED (    2 CORE ORBITALS).
     3=A        4=A        5=A        6=A        7=A        8=A        9=A   
    10=A       11=A       12=A       13=A       14=A       15=A       16=A   
    17=A       18=A   

 SYMMETRIES FOR INITIAL GUESS ORBITALS FOLLOW.   BETA SET(S).
     7 ORBITALS ARE OCCUPIED (    2 CORE ORBITALS).
     3=A        4=A        5=A        6=A        7=A        8=A        9=A   
    10=A       11=A       12=A       13=A       14=A       15=A       16=A   
    17=A   
 ...... END OF INITIAL ORBITAL SELECTION ......
 CPU     0: STEP CPU TIME=     0.00 TOTAL CPU TIME=          0.1 (      0.0 MIN)
 TOTAL WALL CLOCK TIME=          0.1 SECONDS, CPU UTILIZATION IS    88.35%

                    ----------------------
                    AO INTEGRAL TECHNOLOGY
                    ----------------------
     S,P,L SHELL ROTATED AXIS INTEGRALS, REPROGRAMMED BY
        KAZUYA ISHIMURA (IMS) AND JOSE SIERRA (SYNSTAR).
     S,P,D,L SHELL ROTATED AXIS INTEGRALS PROGRAMMED BY
        KAZUYA ISHIMURA (INSTITUTE FOR MOLECULAR SCIENCE).
     S,P,D,F,G SHELL TO TOTAL QUARTET ANGULAR MOMENTUM SUM 5,
        ERIC PROGRAM BY GRAHAM FLETCHER (ELORET AND NASA ADVANCED
        SUPERCOMPUTING DIVISION, AMES RESEARCH CENTER).
     S,P,D,F,G,L SHELL GENERAL RYS QUADRATURE PROGRAMMED BY
        MICHEL DUPUIS (PACIFIC NORTHWEST NATIONAL LABORATORY).

          --------------------
          2 ELECTRON INTEGRALS
          --------------------

 THE -PK- OPTION IS OFF, THE INTEGRALS ARE NOT IN SUPERMATRIX FORM.
 STORING   15000 INTEGRALS/RECORD ON DISK, USING 12 BYTES/INTEGRAL.
 TWO ELECTRON INTEGRAL EVALUATION REQUIRES   90957 WORDS OF MEMORY.
 SCHWARZ INEQUALITY OVERHEAD:      3003 INTEGRALS, T=        0.00
 II,JST,KST,LST =  1  1  1  1 NREC =         1 INTLOC =    1
 II,JST,KST,LST =  2  1  1  1 NREC =         1 INTLOC =    1
 II,JST,KST,LST =  3  1  1  1 NREC =         1 INTLOC =    1
 II,JST,KST,LST =  4  1  1  1 NREC =         1 INTLOC =    1
 II,JST,KST,LST =  5  1  1  1 NREC =         1 INTLOC =    1
 II,JST,KST,LST =  6  1  1  1 NREC =         1 INTLOC =    1
 II,JST,KST,LST =  7  1  1  1 NREC =         1 INTLOC =    4
 II,JST,KST,LST =  8  1  1  1 NREC =         1 INTLOC =  250
 II,JST,KST,LST =  9  1  1  1 NREC =         1 INTLOC =  250
 II,JST,KST,LST = 10  1  1  1 NREC =         1 INTLOC =  250
 II,JST,KST,LST = 11  1  1  1 NREC =         1 INTLOC =  339
 II,JST,KST,LST = 12  1  1  1 NREC =         1 INTLOC =  765
 II,JST,KST,LST = 13  1  1  1 NREC =         1 INTLOC =  765
 II,JST,KST,LST = 14  1  1  1 NREC =         1 INTLOC = 1909
 II,JST,KST,LST = 15  1  1  1 NREC =         1 INTLOC = 1909
 II,JST,KST,LST = 16  1  1  1 NREC =         1 INTLOC = 1909
 II,JST,KST,LST = 17  1  1  1 NREC =         1 INTLOC = 1909
 II,JST,KST,LST = 18  1  1  1 NREC =         1 INTLOC = 3144
 II,JST,KST,LST = 19  1  1  1 NREC =         2 INTLOC = 7032
 II,JST,KST,LST = 20  1  1  1 NREC =         2 INTLOC = 7032
 II,JST,KST,LST = 21  1  1  1 NREC =         2 INTLOC = 7032
 II,JST,KST,LST = 22  1  1  1 NREC =         2 INTLOC = 7032
 II,JST,KST,LST = 23  1  1  1 NREC =         3 INTLOC = 1096
 II,JST,KST,LST = 24  1  1  1 NREC =         5 INTLOC = 8804
 II,JST,KST,LST = 25  1  1  1 NREC =         6 INTLOC = 8857
 II,JST,KST,LST = 26  1  1  1 NREC =         6 INTLOC = 8857
 II,JST,KST,LST = 27  1  1  1 NREC =         9 INTLOC = 5059
 II,JST,KST,LST = 28  1  1  1 NREC =         9 INTLOC = 5059
 II,JST,KST,LST = 29  1  1  1 NREC =        10 INTLOC = 9071
 II,JST,KST,LST = 30  1  1  1 NREC =        12 INTLOC = 2026
 II,JST,KST,LST = 31  1  1  1 NREC =        12 INTLOC =13163
 II,JST,KST,LST = 32  1  1  1 NREC =        14 INTLOC = 2075
 II,JST,KST,LST = 33  1  1  1 NREC =        15 INTLOC = 8844
 SCHWARZ INEQUALITY TEST SKIPPED           0 INTEGRAL BLOCKS.
 TOTAL NUMBER OF NONZERO TWO-ELECTRON INTEGRALS =             3899872
        268 INTEGRAL RECORDS WERE STORED ON DISK FILE  8.
  ...... END OF TWO-ELECTRON INTEGRALS .....
 CPU     0: STEP CPU TIME=     0.03 TOTAL CPU TIME=          0.1 (      0.0 MIN)
 TOTAL WALL CLOCK TIME=          0.1 SECONDS, CPU UTILIZATION IS    88.72%

          ---------------------------
              U-B3LYP SCF CALCULATION
          ---------------------------

     NUCLEAR ENERGY =        27.8733258833
     MAXIT = 30     NPUNCH=  2     MULT=  2
     EXTRAP=T  DAMP=F  SHIFT=F  RSTRCT=F  DIIS=T  SOSCF=T
         DENSITY MATRIX CONVERGENCE THRESHOLD=  1.00E-05
     COARSE -> FINE DFT GRID SWITCH THRESHOLD=  3.00E-04 (SWITCH IN $DFT)
                   HF -> DFT SWITCH THRESHOLD=  5.00E-03 (SWOFF IN $DFT)
     SOSCF WILL OPTIMIZE     520 ALPHA AND     462 BETA ROTATION ANGLES.
     SOGTOL= 2.500E-01
     MEMORY REQUIRED FOR UHF/ROHF ITERS=    298732 WORDS.

     EXCHANGE FUNCTIONAL   =B88&HFX   
     CORRELATION FUNCTIONAL=LYP88&VWN5
     DFT THRESHOLD         =.690E-08
     GRID CHANGE THRESHOLD =.300E-03
 FOR AN EULER-MACLAURIN QUADRATURE USING  96 RADIAL POINTS:
 SMALLEST GAUSSIAN PRIMITIVE EXPONENT=        0.0297400000 OF TYPE -S-
 ON ATOM NUMBER   3 HAS RADIAL NORMALIZATION=  1.000000
  LARGEST GAUSSIAN PRIMITIVE EXPONENT=     6665.0000000000 OF TYPE -S-
 ON ATOM NUMBER   1 HAS RADIAL NORMALIZATION=  1.000000
 DFT IS SWITCHED OFF, PERFORMING PURE SCF UNTIL SWOFF THRESHOLD IS REACHED.

 ITER EX      TOTAL ENERGY        E CHANGE  DENSITY CHANGE    DIIS ERROR
          * * *   INITIATING DIIS PROCEDURE   * * *
   1  0      -77.1745130891   -77.1745130891   0.500488250   0.356913000
   2  1      -77.3685766823    -0.1940635932   0.154332805   0.054103434
   3  2      -77.3846154601    -0.0160387778   0.031196272   0.025979930
   4  3      -77.3890248178    -0.0044093577   0.022138472   0.011233714
   5  4      -77.3904144710    -0.0013896532   0.012918786   0.008561327
   6  5      -77.3910641165    -0.0006496455   0.024416899   0.008558763
   7  6      -77.3921321617    -0.0010680453   0.064083985   0.008311412
   8  7      -77.3945053860    -0.0023732242   0.112443400   0.006465690
   9  8      -77.3960626294    -0.0015572434   0.068510879   0.002076610
  10  9      -77.3956314757     0.0004311537   0.042775478   0.004129343
  11 10      -77.3961373185    -0.0005058428   0.007067530   0.000728072
  12 11      -77.3961519492    -0.0000146307   0.000724936   0.000102424
 CONVERGED TO SWOFF, SO DFT CALCULATION IS NOW SWITCHED ON.
          * * *   INITIATING DIIS PROCEDURE   * * *
  13 12      -77.8299686766    -0.4338167274   0.394079259   0.062297163
  14 13      -77.8465663698    -0.0165976932   0.062686120   0.016725984
  15 14      -77.8492474997    -0.0026811298   0.024658406   0.011959128
  16 15      -77.8507043757    -0.0014568760   0.050561410   0.007373349
  17 16      -77.8516844205    -0.0009800448   0.009202848   0.003435691
  18 17      -77.8517677914    -0.0000833708   0.006014582   0.001410393
  19 18      -77.8517876501    -0.0000198587   0.002029022   0.000279002
         SWDIIS THRESHOLD HAS BEEN REACHED: SWITCHING DIIS OFF.
          ---------------START SECOND ORDER SCF---------------
  20 19      -77.8517888132    -0.0000011632   0.000136516   0.000021904
  21 20      -77.8517888261    -0.0000000129   0.000156120   0.000023039
  22 21      -77.8517888267    -0.0000000006   0.000065756   0.000022101
  23 22      -77.8517888311    -0.0000000045   0.000008620   0.000002399
  24 23      -77.8517888312    -0.0000000001   0.000011877   0.000001906

          ----------------
          ENERGY CONVERGED
          ----------------
     TIME TO FORM FOCK OPERATORS=       1.2 SECONDS (       0.1 SEC/ITER)
     TIME TO SOLVE SCF EQUATIONS=       0.1 SECONDS (       0.0 SEC/ITER)

 FINAL U-B3LYP ENERGY IS      -77.8517888312 AFTER  24 ITERATIONS
 DFT EXCHANGE + CORRELATION ENERGY =        -9.5247989043
 TOTAL ELECTRON NUMBER             =        14.9999927190

          --------------------
          SPIN SZ   =    0.500
          S-SQUARED =    0.764
          --------------------

  ----- ALPHA SET ----- 

          ------------
          EIGENVECTORS
          ------------

                      1          2          3          4          5
                  -10.2291   -10.2019    -0.7670    -0.5781    -0.4645
                     A          A          A          A          A   
    1  C  1  S    0.012106   1.009649  -0.019657   0.011332  -0.002212
    2  C  1  S   -0.001520   0.022154   0.316268  -0.227230   0.000784
    3  C  1  S    0.040180  -0.073326   0.096126  -0.324002  -0.033535
    4  C  1  X   -0.000015  -0.000002  -0.000088   0.000596   0.005313
    5  C  1  Y   -0.000025  -0.000006   0.007865   0.031425   0.341375
    6  C  1  Z   -0.001004  -0.000350   0.110646   0.207093  -0.209241
    7  C  1  X    0.000128   0.000064   0.000169  -0.000512  -0.000914
    8  C  1  Y   -0.001323  -0.000264   0.024084   0.027490  -0.016342
    9  C  1  Z    0.038668  -0.008932  -0.029246  -0.242054   0.040107
   10  C  1 XX    0.000214  -0.001626  -0.006305   0.001490  -0.001723
   11  C  1 YY    0.000860   0.000838  -0.007567  -0.011305   0.008504
   12  C  1 ZZ   -0.001074   0.000788   0.013872   0.009814  -0.006782
   13  C  1 XY    0.000022   0.000062  -0.000062  -0.000316   0.000148
   14  C  1 XZ    0.000004   0.000014   0.000014  -0.000193  -0.000319
   15  C  1 YZ    0.000471   0.000050   0.000215   0.002359  -0.006054
   16  C  1  S    0.015235  -0.033922   0.016473   0.138091  -0.060438
   17  C  1  X    0.000037   0.000027  -0.000247  -0.000140  -0.001311
   18  C  1  Y    0.000760   0.000813  -0.003685   0.009012  -0.058724
   19  C  1  Z    0.006202  -0.003690  -0.001958   0.011731  -0.008863
   20  C  1 XX   -0.002135   0.004867   0.006319  -0.007170  -0.006357
   21  C  1 YY   -0.004486   0.001492  -0.008187   0.105857  -0.044563
   22  C  1 ZZ    0.006621  -0.006359   0.001868  -0.098688   0.050920
   23  C  1 XY   -0.000042  -0.000069  -0.000953   0.001941  -0.001431
   24  C  1 XZ   -0.000048  -0.000049   0.000533   0.000228   0.002490
   25  C  1 YZ   -0.003116  -0.001072   0.024818   0.019619   0.104885
   26  C  2  S    1.009987  -0.013683  -0.017118  -0.006435  -0.000331
   27  C  2  S    0.022728  -0.001367   0.307132   0.268924  -0.070532
   28  C  2  S   -0.089921   0.024469   0.252794   0.492733  -0.241351
   29  C  2  X   -0.000037  -0.000006  -0.000932  -0.002220   0.000657
   30  C  2  Y    0.000903   0.000107   0.024531   0.097808   0.255503
   31  C  2  Z   -0.000219   0.000910  -0.128201   0.118989   0.162917
   32  C  2  X    0.000135   0.000066   0.000027   0.000445  -0.000245
   33  C  2  Y   -0.003255  -0.001151  -0.057808  -0.093372   0.008759
   34  C  2  Z    0.030753  -0.016852  -0.091141  -0.220263   0.063494
   35  C  2 XX   -0.000852   0.000672  -0.011430  -0.001419  -0.000475
   36  C  2 YY    0.000523   0.000641  -0.003926   0.009841   0.005740
   37  C  2 ZZ    0.000329  -0.001313   0.015355  -0.008422  -0.005265
   38  C  2 XY   -0.000010  -0.000007   0.000279   0.000029  -0.000309
   39  C  2 XZ   -0.000021   0.000003  -0.000066  -0.000268  -0.000335
   40  C  2 YZ    0.000885   0.000041  -0.006144  -0.001644  -0.009703
   41  C  2  S   -0.028996   0.019774  -0.018934  -0.118185   0.022272
   42  C  2  X    0.000004   0.000014   0.000242   0.000283   0.000481
   43  C  2  Y   -0.001408  -0.001329  -0.000336  -0.026889   0.018149
   44  C  2  Z    0.004240  -0.005754   0.006596   0.004860  -0.013300
   45  C  2 XX    0.005989  -0.001053  -0.006791   0.006281   0.001264
   46  C  2 YY    0.004285  -0.001759  -0.017846  -0.059871  -0.008195
   47  C  2 ZZ   -0.010273   0.002812   0.024637   0.053590   0.006931
   48  C  2 XY   -0.000003  -0.000010   0.000909   0.000292   0.000643
   49  C  2 XZ    0.000033  -0.000011   0.000393   0.000085   0.000762
   50  C  2 YZ   -0.004241  -0.001156   0.008742  -0.021903   0.013299
   51  H  3  S   -0.000658  -0.000104   0.124393   0.258751   0.194093
   52  H  3  S    0.021387   0.007212   0.065137   0.272373   0.107785
   53  H  3  X   -0.000027   0.000006   0.000186   0.000419   0.000345
   54  H  3  Y    0.001719  -0.000005  -0.012783  -0.016850  -0.005906
   55  H  3  Z    0.000730   0.000182  -0.011269  -0.009934  -0.005245
   56  H  3  S    0.001296   0.001924   0.003591   0.025944   0.010366
   57  H  3  X    0.000150   0.000050  -0.000168   0.001726  -0.000119
   58  H  3  Y   -0.007713  -0.002230  -0.007758  -0.042440  -0.011751
   59  H  3  Z   -0.002020  -0.000913  -0.017521  -0.029436  -0.010535
   60  H  4  S   -0.000345  -0.000855   0.116685  -0.229184  -0.141498
   61  H  4  S    0.017769   0.021915  -0.010712  -0.218091  -0.198690
   62  H  4  X   -0.000005  -0.000045   0.000388  -0.000569  -0.000156
   63  H  4  Y   -0.000210  -0.001549   0.014359  -0.016892   0.000606
   64  H  4  Z   -0.000614  -0.001019   0.012535  -0.005387  -0.009986
   65  H  4  S    0.001765   0.002001   0.000027  -0.012830  -0.041588
   66  H  4  X    0.000137   0.000202  -0.000403  -0.001346  -0.001734
   67  H  4  Y    0.004837   0.006789  -0.009302  -0.020670  -0.049549
   68  H  4  Z    0.002451   0.003033   0.008844  -0.034082   0.011217
   69  H  5  S   -0.000192  -0.000915   0.126565  -0.203065   0.341052
   70  H  5  S    0.009350   0.019021   0.015139  -0.225318   0.435391
   71  H  5  X   -0.000007   0.000020  -0.000244   0.000327  -0.000205
   72  H  5  Y   -0.000077   0.001519  -0.014513   0.016641  -0.010225
   73  H  5  Z   -0.000422  -0.000945   0.011291  -0.004928   0.005096
   74  H  5  S    0.001704   0.001140   0.002188  -0.013825   0.045513
   75  H  5  X   -0.000062  -0.000109   0.000472   0.000771  -0.000634
   76  H  5  Y   -0.002369  -0.006012   0.000539   0.020109  -0.072668
   77  H  5  Z    0.001981   0.002958  -0.001959  -0.053712   0.040785

                      6          7          8          9         10
                   -0.4137    -0.2851    -0.2734    -0.0197    -0.0019
                     A          A          A          A          A   
    1  C  1  S    0.000006  -0.000095   0.000578   0.000085  -0.002981
    2  C  1  S   -0.036518  -0.006161   0.050126   0.002722   0.084572
    3  C  1  S   -0.169700  -0.002932   0.023270   0.005918   0.345643
    4  C  1  X   -0.009999   0.389732   0.041835   0.403730  -0.000583
    5  C  1  Y   -0.254641   0.005063  -0.135202  -0.009909   0.029538
    6  C  1  Z   -0.320119  -0.018297   0.112146  -0.000346  -0.096101
    7  C  1  X   -0.000625   0.214475   0.025701   0.338792  -0.001396
    8  C  1  Y    0.060672  -0.009144   0.032057  -0.006683   0.042038
    9  C  1  Z   -0.092034   0.000865  -0.021463   0.000002  -0.283533
   10  C  1 XX   -0.001152  -0.000011   0.000514   0.000063   0.000938
   11  C  1 YY    0.010601   0.000140  -0.000680  -0.000010  -0.002784
   12  C  1 ZZ   -0.009449  -0.000130   0.000166  -0.000053   0.001846
   13  C  1 XY    0.000312   0.000623   0.000113   0.000049  -0.000021
   14  C  1 XZ   -0.000207   0.021485   0.003062  -0.030077  -0.000008
   15  C  1 YZ    0.013736  -0.004151   0.040247  -0.000386   0.001424
   16  C  1  S   -0.038597  -0.019337   0.156687  -0.000993   1.297041
   17  C  1  X    0.000621   0.028515   0.004127   0.562771   0.001368
   18  C  1  Y    0.051377  -0.002496   0.020010  -0.013102   0.037466
   19  C  1  Z   -0.014844  -0.005250   0.039804  -0.003700  -0.298169
   20  C  1 XX    0.000029   0.000703  -0.005647  -0.000358  -0.039349
   21  C  1 YY   -0.043950  -0.004080   0.028998   0.000140   0.024801
   22  C  1 ZZ    0.043921   0.003377  -0.023351   0.000218   0.014548
   23  C  1 XY   -0.002530   0.004467   0.000747  -0.003281   0.001397
   24  C  1 XZ   -0.000879   0.003823  -0.000574  -0.041825   0.000822
   25  C  1 YZ   -0.051860   0.003028  -0.034823   0.002835   0.026963
   26  C  2  S   -0.000873  -0.000046  -0.000771   0.000048  -0.002523
   27  C  2  S    0.030977   0.019588  -0.150495  -0.003798   0.056092
   28  C  2  S   -0.055302   0.038736  -0.310967  -0.008938   0.366471
   29  C  2  X   -0.008076   0.439412   0.054555  -0.411911  -0.000364
   30  C  2  Y    0.036127  -0.053181   0.470952  -0.001557   0.043868
   31  C  2  Z    0.374595   0.036972  -0.254350  -0.003601   0.082530
   32  C  2  X   -0.001598   0.254181   0.034219  -0.348845  -0.002306
   33  C  2  Y   -0.066106  -0.025265   0.240051  -0.004112   0.099122
   34  C  2  Z    0.045547   0.028304  -0.221066  -0.001969  -0.007422
   35  C  2 XX   -0.001595   0.000175  -0.004814   0.000156  -0.001698
   36  C  2 YY    0.011069   0.000344   0.000101  -0.000022  -0.004882
   37  C  2 ZZ   -0.009474  -0.000519   0.004713  -0.000134   0.006580
   38  C  2 XY   -0.000135  -0.000467  -0.000645  -0.000085  -0.000022
   39  C  2 XZ    0.000189  -0.020314  -0.002052  -0.032112  -0.000020
   40  C  2 YZ    0.017719  -0.001647   0.020330   0.001137  -0.003615
   41  C  2  S   -0.014636   0.031542  -0.259797  -0.001799   0.871910
   42  C  2  X    0.000325   0.031163   0.004412  -0.514772  -0.003015
   43  C  2  Y   -0.035912  -0.002305   0.023508   0.003210   0.190634
   44  C  2  Z   -0.015180  -0.001331   0.007144  -0.004973   0.146671
   45  C  2 XX   -0.003937  -0.001198   0.006922   0.000407  -0.039498
   46  C  2 YY   -0.036932   0.002840  -0.022990  -0.000598  -0.012543
   47  C  2 ZZ    0.040869  -0.001642   0.016067   0.000191   0.052041
   48  C  2 XY    0.001515  -0.001303  -0.000280   0.008345  -0.000741
   49  C  2 XZ    0.000198  -0.007160  -0.000850  -0.037638  -0.000030
   50  C  2 YZ   -0.017097   0.000845  -0.011841   0.002462   0.033074
   51  H  3  S    0.233100  -0.020450   0.195128   0.007762   0.005180
   52  H  3  S    0.277996  -0.026251   0.248934   0.007606  -0.358187
   53  H  3  X   -0.000020   0.015559   0.002166  -0.020924   0.000189
   54  H  3  Y   -0.009285  -0.000601   0.006728  -0.000009  -0.010699
   55  H  3  Z    0.001077   0.002148  -0.015824  -0.000143  -0.001526
   56  H  3  S    0.036885  -0.002230   0.027622   0.009753  -0.897706
   57  H  3  X    0.000366   0.015217   0.002999  -0.053452  -0.000757
   58  H  3  Y   -0.038795   0.001973  -0.017962   0.002092   0.031718
   59  H  3  Z   -0.036180   0.003956  -0.028977   0.000534   0.032949
   60  H  4  S    0.324730  -0.012621   0.145147  -0.005003   0.006902
   61  H  4  S    0.390995  -0.016420   0.193044  -0.008020  -0.404630
   62  H  4  X    0.000159   0.014325   0.001657   0.021807   0.000240
   63  H  4  Y    0.009633  -0.000259  -0.000910  -0.000408   0.009653
   64  H  4  Z    0.003142  -0.000734   0.005093   0.000155   0.002051
   65  H  4  S    0.035909  -0.003416   0.039696  -0.014185  -0.638502
   66  H  4  X    0.001502   0.015546   0.002635   0.045358  -0.002240
   67  H  4  Y    0.054949  -0.003901   0.035405  -0.000670  -0.063687
   68  H  4  Z    0.052284  -0.000344   0.003445   0.001808  -0.017055
   69  H  5  S   -0.072553   0.021815  -0.209062   0.001656   0.003845
   70  H  5  S   -0.183567   0.035311  -0.336189   0.004478  -0.419475
   71  H  5  X   -0.000200   0.014268   0.001661   0.022654  -0.000192
   72  H  5  Y   -0.003175  -0.000348  -0.000105  -0.000446  -0.012238
   73  H  5  Z   -0.010875  -0.000163   0.000248  -0.000191   0.003418
   74  H  5  S   -0.043192   0.003188  -0.041737   0.002471  -1.138477
   75  H  5  X    0.001835   0.012621   0.002518   0.052814   0.000897
   76  H  5  Y    0.050979  -0.004647   0.043009  -0.001314   0.036317
   77  H  5  Z   -0.005854   0.002996  -0.023044  -0.000928  -0.024666

                     11         12         13         14         15
                    0.0149     0.0250     0.0627     0.0712     0.0791
                     A          A          A          A          A   
    1  C  1  S   -0.001270   0.002402   0.000810   0.007652   0.002895
    2  C  1  S    0.067491  -0.017213  -0.001224  -0.012243   0.043966
    3  C  1  S    0.185839  -0.129243  -0.044985  -0.389156   0.154290
    4  C  1  X   -0.003308  -0.003697   0.172104  -0.013981   0.001810
    5  C  1  Y   -0.067376  -0.118392  -0.001536   0.037483   0.011688
    6  C  1  Z   -0.036305   0.005068   0.000459   0.013760   0.054375
    7  C  1  X   -0.005985  -0.010442   0.199786  -0.013032  -0.000746
    8  C  1  Y   -0.171308  -0.371935  -0.001758   0.101825   0.010441
    9  C  1  Z   -0.273372   0.104977  -0.013545   0.033818  -0.045392
   10  C  1 XX    0.002798  -0.003169  -0.000422  -0.007374  -0.006834
   11  C  1 YY    0.004873  -0.001746   0.000114   0.001083  -0.010939
   12  C  1 ZZ   -0.007671   0.004915   0.000308   0.006290   0.017774
   13  C  1 XY   -0.000082   0.000009  -0.000842   0.000250  -0.000178
   14  C  1 XZ    0.000230  -0.000088   0.006099  -0.000463  -0.000067
   15  C  1 YZ   -0.004786  -0.003811  -0.000941  -0.010503   0.003060
   16  C  1  S    0.438539  -1.749770  -0.999765 -10.805190   1.474559
   17  C  1  X   -0.021228  -0.040355  -0.625029   0.066384  -0.017212
   18  C  1  Y   -0.203521  -1.939781   0.091183   0.429575  -0.491849
   19  C  1  Z   -0.531616  -0.371411  -0.422730  -4.812373  -1.576323
   20  C  1 XX   -0.010944   0.016656   0.007819   0.080887   0.023039
   21  C  1 YY    0.022333  -0.051389  -0.009141  -0.154070   0.016469
   22  C  1 ZZ   -0.011390   0.034733   0.001322   0.073183  -0.039508
   23  C  1 XY    0.000256  -0.000104   0.023490  -0.007290   0.001421
   24  C  1 XZ    0.000679   0.001256   0.040895  -0.003160   0.003033
   25  C  1 YZ   -0.043123   0.099491  -0.004788   0.004474   0.113636
   26  C  2  S   -0.001257  -0.000747  -0.000954  -0.005490   0.005512
   27  C  2  S   -0.072989   0.048124   0.003079   0.040747   0.030815
   28  C  2  S   -0.231409   0.245937   0.062603   0.428561   0.052197
   29  C  2  X    0.003423  -0.000965   0.127735  -0.010438   0.001520
   30  C  2  Y   -0.085104  -0.045998  -0.012058  -0.142010   0.060972
   31  C  2  Z   -0.027738   0.023409   0.001624   0.004768  -0.075591
   32  C  2  X    0.006212  -0.001394   0.145244  -0.018925   0.002826
   33  C  2  Y   -0.160214   0.094282   0.020216   0.116262  -0.141624
   34  C  2  Z   -0.249052   0.149133  -0.008767   0.044986  -0.063528
   35  C  2 XX   -0.003384   0.001478  -0.000085   0.001458  -0.010000
   36  C  2 YY   -0.001748   0.002151   0.000198  -0.000516  -0.013510
   37  C  2 ZZ    0.005133  -0.003628  -0.000114  -0.000942   0.023510
   38  C  2 XY   -0.000233  -0.000010   0.003936  -0.000191   0.000034
   39  C  2 XZ    0.000260   0.000281  -0.013356   0.001157  -0.000071
   40  C  2 YZ    0.008183   0.007547   0.000455   0.001925  -0.006716
   41  C  2  S   -0.499434   2.285941   1.033171  11.103543  -0.274942
   42  C  2  X    0.019601   0.009703  -0.591681   0.068140  -0.010296
   43  C  2  Y   -0.555381   1.022994  -0.013576   0.316775  -0.058654
   44  C  2  Z   -0.622301  -0.235282  -0.409009  -4.180940   1.868263
   45  C  2 XX    0.007839  -0.041111  -0.007523  -0.076113   0.063198
   46  C  2 YY   -0.063333   0.033236   0.006086   0.084899  -0.027026
   47  C  2 ZZ    0.055493   0.007875   0.001437  -0.008785  -0.036172
   48  C  2 XY    0.001505  -0.000522  -0.039614   0.001316  -0.001171
   49  C  2 XZ    0.000998  -0.001014  -0.015260   0.001091  -0.000506
   50  C  2 YZ   -0.072325   0.084819   0.001861   0.059769   0.082938
   51  H  3  S    0.016244   0.014983  -0.000497  -0.022798  -0.017980
   52  H  3  S    0.671259  -0.547895  -0.078062  -0.850441   0.213779
   53  H  3  X   -0.000079   0.000138  -0.005760   0.000362   0.000104
   54  H  3  Y    0.010295   0.000126   0.000935   0.009794  -0.008470
   55  H  3  Z    0.008183  -0.000469   0.000230   0.005317   0.007025
   56  H  3  S    2.554962  -1.432346   0.299707   3.482621  -0.146258
   57  H  3  X    0.001883  -0.003311   0.038956  -0.007607   0.002081
   58  H  3  Y   -0.083418   0.133367   0.014386   0.137104  -0.084937
   59  H  3  Z   -0.021119   0.003450   0.017920   0.139825  -0.096578
   60  H  4  S   -0.009487   0.012740  -0.001757  -0.023158  -0.024026
   61  H  4  S   -0.447509  -0.452888   0.044798   0.590792  -0.344237
   62  H  4  X    0.000073   0.000106  -0.003528   0.000343   0.000092
   63  H  4  Y    0.007593   0.002778   0.000206  -0.000188   0.003621
   64  H  4  Z    0.007150   0.002817  -0.000696  -0.010519  -0.011299
   65  H  4  S   -2.041237  -3.109252   0.024905   0.446022  -1.128878
   66  H  4  X   -0.001839  -0.001301   0.070393  -0.004091   0.000985
   67  H  4  Y   -0.060277  -0.052772  -0.000647   0.032576  -0.011477
   68  H  4  Z   -0.008172  -0.053240   0.007896   0.145182   0.029659
   69  H  5  S    0.002733  -0.002517   0.001704   0.025471  -0.038411
   70  H  5  S   -0.160418   0.860313   0.023102   0.406857   0.096378
   71  H  5  X   -0.000281   0.000003  -0.004192   0.000283  -0.000182
   72  H  5  Y   -0.002464   0.004222   0.000098  -0.001343  -0.006288
   73  H  5  Z    0.003254  -0.007292  -0.000226  -0.002347  -0.014302
   74  H  5  S   -0.488397   3.803306  -0.374858  -4.343045   0.576751
   75  H  5  X    0.001601  -0.001930   0.030974  -0.004154  -0.000849
   76  H  5  Y    0.063793  -0.091891  -0.000613  -0.002425  -0.090732
   77  H  5  Z    0.051439   0.068499   0.008152   0.101100   0.038179

                     16         17         18         19         20
                    0.1117     0.1126     0.1167     0.1280     0.1459
                     A          A          A          A          A   
    1  C  1  S    0.005608   0.001696  -0.038826  -0.014843  -0.015003
    2  C  1  S   -0.058068  -0.013840  -0.204862  -0.019111  -0.120592
    3  C  1  S   -0.984088  -0.265555   0.323540   0.524286   0.532835
    4  C  1  X   -0.057921   0.229143  -0.000699   0.007780   0.000560
    5  C  1  Y    0.111256   0.023770  -0.084343   0.237414   0.039654
    6  C  1  Z    0.002664   0.000541   0.121446   0.001036   0.130641
    7  C  1  X   -0.058069   0.178158  -0.000709  -0.023004  -0.007309
    8  C  1  Y   -0.409262  -0.113451   0.295278  -0.931256  -0.170195
    9  C  1  Z   -1.201564  -0.332340  -1.552458  -0.380744   1.548891
   10  C  1 XX    0.000870   0.000166   0.019900   0.016695  -0.039527
   11  C  1 YY   -0.000215  -0.000004   0.003795  -0.008176   0.048838
   12  C  1 ZZ   -0.000655  -0.000162  -0.023695  -0.008519  -0.009311
   13  C  1 XY   -0.000718   0.001109  -0.000394  -0.000212   0.001577
   14  C  1 XZ    0.001724  -0.006656  -0.000148   0.000228  -0.000280
   15  C  1 YZ    0.023506   0.005975  -0.007305   0.009233  -0.016623
   16  C  1  S   -5.577445  -1.350195   5.087588   5.287249   0.165552
   17  C  1  X    0.532153  -2.172082   0.018363  -0.124814  -0.044572
   18  C  1  Y   -0.304937  -0.054345   1.843660  -6.050243  -2.449582
   19  C  1  Z   -3.525335  -0.896712  -1.935241   1.709379   0.570273
   20  C  1 XX    0.045560   0.012557  -0.160773  -0.037062  -0.096256
   21  C  1 YY    0.177999   0.049801   0.342576   0.201033  -0.661281
   22  C  1 ZZ   -0.223558  -0.062358  -0.181803  -0.163971   0.757538
   23  C  1 XY    0.012200  -0.031835   0.011235   0.009122  -0.011272
   24  C  1 XZ    0.015940  -0.054823   0.000506   0.004770   0.009911
   25  C  1 YZ   -0.059035  -0.015187  -0.014550   0.331151   0.321867
   26  C  2  S    0.008367   0.002549  -0.036012  -0.026329   0.024662
   27  C  2  S    0.109187   0.028818  -0.112625  -0.099307   0.013128
   28  C  2  S    0.468753   0.118659   1.281501   0.781130  -2.185391
   29  C  2  X    0.058714  -0.233965  -0.000596  -0.000651   0.003139
   30  C  2  Y    0.175532   0.045824  -0.007615   0.001833  -0.093193
   31  C  2  Z    0.057776   0.014258  -0.085159  -0.008552  -0.067648
   32  C  2  X    0.070445  -0.217819  -0.005957  -0.005271  -0.002605
   33  C  2  Y   -0.354492  -0.112119   0.135861   0.404406  -0.512575
   34  C  2  Z   -1.331732  -0.372886  -0.892562   0.124226   1.092512
   35  C  2 XX   -0.004674  -0.001269   0.005410   0.013539  -0.011854
   36  C  2 YY    0.005941   0.001360   0.002471  -0.007871   0.017812
   37  C  2 ZZ   -0.001266  -0.000091  -0.007881  -0.005668  -0.005958
   38  C  2 XY    0.001059  -0.005881  -0.000368  -0.000197   0.000604
   39  C  2 XZ    0.000647  -0.004057   0.000112  -0.000460   0.000404
   40  C  2 YZ   -0.015736  -0.003430   0.004079  -0.017073   0.001510
   41  C  2  S    4.010758   0.878446   2.616780  -0.909055  -1.947839
   42  C  2  X   -0.521458   2.173333   0.003819   0.009968   0.003972
   43  C  2  Y   -2.716028  -0.749472  -0.761132   3.504029   0.703931
   44  C  2  Z   -4.093984  -1.049660  -0.137196   2.244895   1.087549
   45  C  2 XX    0.008141   0.002582  -0.127997  -0.071285  -0.023722
   46  C  2 YY   -0.299585  -0.082597  -0.128852   0.040406   0.196580
   47  C  2 ZZ    0.291444   0.080014   0.256849   0.030879  -0.172858
   48  C  2 XY   -0.009410   0.061663  -0.001697  -0.001196   0.003778
   49  C  2 XZ    0.025455  -0.081455  -0.000342  -0.002906  -0.000064
   50  C  2 YZ   -0.239187  -0.066134   0.095010   0.143706   0.187579
   51  H  3  S   -0.021150  -0.000638   0.010732  -0.087358   0.102615
   52  H  3  S    2.187149   0.641401  -0.539417  -1.784737   0.605395
   53  H  3  X    0.000343  -0.000534  -0.000156  -0.000258   0.000084
   54  H  3  Y   -0.019168  -0.005423   0.011451   0.011045  -0.008242
   55  H  3  Z   -0.011613  -0.003463  -0.001856   0.015112  -0.005229
   56  H  3  S    6.000406   1.605356   0.157569  -3.846157  -0.776362
   57  H  3  X    0.035922  -0.114003  -0.004652  -0.011856   0.006244
   58  H  3  Y   -0.596054  -0.168647   0.247618   0.281472   0.215755
   59  H  3  Z   -0.374176  -0.104312   0.067690   0.160660  -0.141024
   60  H  4  S    0.027777   0.004587  -0.002587  -0.057820   0.099309
   61  H  4  S   -1.038072  -0.289861  -1.678940  -3.136692   0.719064
   62  H  4  X   -0.000145  -0.000359  -0.000280  -0.000528  -0.000542
   63  H  4  Y   -0.010549  -0.002991  -0.009505  -0.022807  -0.024095
   64  H  4  Z   -0.008670  -0.002476  -0.000969  -0.011050   0.005803
   65  H  4  S   -3.786023  -0.985542  -0.772533  -5.118715  -1.967378
   66  H  4  X   -0.027266   0.085762  -0.012872  -0.021592  -0.002444
   67  H  4  Y   -0.319682  -0.086817  -0.440777  -0.569543  -0.474385
   68  H  4  Z   -0.295346  -0.077031  -0.207063  -0.570574   0.400416
   69  H  5  S   -0.019453  -0.003530  -0.017607  -0.022565   0.225799
   70  H  5  S   -0.032013  -0.015326  -2.729255   1.098632   2.824998
   71  H  5  X   -0.000483   0.001455   0.000524  -0.000274   0.000183
   72  H  5  Y   -0.007821  -0.002219   0.026093  -0.016496   0.011437
   73  H  5  Z    0.000651   0.000123  -0.013647   0.014698  -0.000217
   74  H  5  S   -1.200101  -0.317390  -4.239019   6.564034   2.817046
   75  H  5  X   -0.031079   0.117693   0.010289  -0.004451   0.002232
   76  H  5  Y   -0.006975  -0.001293   0.668978  -0.421302   0.140458
   77  H  5  Z    0.102329   0.023829  -0.420873   0.163874   0.435725

                     21         22         23         24         25
                    0.1684     0.1954     0.2193     0.2530     0.2856
                     A          A          A          A          A   
    1  C  1  S    0.049171   0.018696   0.000322  -0.005159  -0.009860
    2  C  1  S    0.158176   0.012216   0.000965  -0.030287  -0.137223
    3  C  1  S   -2.125425  -0.558422   0.012231   0.745590   0.391617
    4  C  1  X   -0.005794   0.006434   0.001494  -0.003521   0.002957
    5  C  1  Y   -0.065784   0.124227  -0.016531  -0.199795   0.008754
    6  C  1  Z   -0.062211  -0.019947   0.001291   0.075310  -0.015545
    7  C  1  X   -0.006449   0.004376  -0.069261  -0.002072   0.009488
    8  C  1  Y   -0.093979   0.602495  -0.023443  -0.226035   0.084090
    9  C  1  Z   -1.011040   1.217087   0.058577   0.749010   2.405391
   10  C  1 XX    0.014198  -0.024751   0.002125  -0.015404  -0.023664
   11  C  1 YY   -0.005785   0.025702  -0.002531   0.017601  -0.073718
   12  C  1 ZZ   -0.008413  -0.000951   0.000406  -0.002196   0.097383
   13  C  1 XY   -0.002255   0.002994   0.047259  -0.002135  -0.000608
   14  C  1 XZ   -0.000125   0.000174  -0.002693  -0.001008   0.000845
   15  C  1 YZ   -0.037603   0.037447  -0.005719  -0.031523  -0.013214
   16  C  1  S  -18.280635 -20.743674  -0.500442 -10.403246   2.292308
   17  C  1  X   -0.027698   0.041530   0.014261  -0.031537   0.004764
   18  C  1  Y   -0.148352   2.485458  -0.132548  -1.733102  -0.969329
   19  C  1  Z   -6.202691  -5.878751  -0.161981  -2.293004   4.009952
   20  C  1 XX    0.179734   0.119610  -0.013864   0.085419  -0.275421
   21  C  1 YY    0.140886  -0.557504   0.006114  -0.210509   0.129524
   22  C  1 ZZ   -0.320620   0.437894   0.007750   0.125090   0.145897
   23  C  1 XY    0.000918  -0.018392  -0.177132   0.012818  -0.004487
   24  C  1 XZ    0.006716  -0.014134  -0.014346   0.020084  -0.007648
   25  C  1 YZ    0.446229  -0.198373   0.075893   0.857112   0.211712
   26  C  2  S   -0.045707  -0.017531  -0.000266  -0.004352   0.034171
   27  C  2  S   -0.198011  -0.048498  -0.002031  -0.000792   0.162875
   28  C  2  S    1.617697  -0.508146   0.011882  -0.359285  -0.635571
   29  C  2  X    0.005827  -0.008597  -0.039953   0.001164   0.004367
   30  C  2  Y   -0.039033   0.063101   0.012571   0.288343  -0.039154
   31  C  2  Z   -0.109480  -0.006692  -0.004240   0.021710  -0.250766
   32  C  2  X    0.001299  -0.018476  -0.233676  -0.011664   0.014713
   33  C  2  Y   -0.147478   0.796309   0.017194   0.387823   0.423420
   34  C  2  Z   -1.204856   1.122173   0.044581   0.786159   1.569116
   35  C  2 XX   -0.016326   0.012201  -0.000533   0.014592   0.029235
   36  C  2 YY    0.011650   0.003405   0.000126  -0.021603   0.021695
   37  C  2 ZZ    0.004676  -0.015606   0.000407   0.007011  -0.050930
   38  C  2 XY   -0.001331   0.001490   0.022065  -0.000776  -0.001413
   39  C  2 XZ    0.000369   0.000364   0.009197   0.000005  -0.000745
   40  C  2 YZ    0.017850  -0.052548   0.003979   0.010149  -0.007362
   41  C  2  S   18.512591  20.891514   0.515766  11.048494  -3.985994
   42  C  2  X    0.039811  -0.006388  -0.166912   0.013268  -0.007621
   43  C  2  Y   -1.675620  -1.008747   0.015172   1.594222   1.300176
   44  C  2  Z   -6.129979  -5.230170  -0.205506  -2.434936   1.592126
   45  C  2 XX   -0.185450  -0.162239   0.017848  -0.005353   0.187195
   46  C  2 YY   -0.165695   0.200866   0.007488   0.201517   0.183498
   47  C  2 ZZ    0.351144  -0.038628  -0.025336  -0.196164  -0.370693
   48  C  2 XY   -0.010006   0.011797   0.254944  -0.020221   0.006649
   49  C  2 XZ    0.005140  -0.019136  -0.111051   0.014220   0.000039
   50  C  2 YZ    0.336833   0.274961   0.037705   0.612129   0.331307
   51  H  3  S    0.176833  -0.179996   0.008748  -0.091881  -0.023793
   52  H  3  S   -0.277548  -3.010124  -0.152425  -2.921499  -2.147659
   53  H  3  X    0.000171  -0.000572  -0.004081   0.000496  -0.000298
   54  H  3  Y    0.013070  -0.002269   0.000796  -0.003199   0.002540
   55  H  3  Z    0.005048  -0.007254   0.000233  -0.004557  -0.012193
   56  H  3  S    3.137247   1.716525   0.139500   0.176425  -2.681463
   57  H  3  X   -0.020744   0.004157   0.524165  -0.033881  -0.059689
   58  H  3  Y    0.599297   0.624872   0.024400  -0.237066   0.711220
   59  H  3  Z    0.159025  -0.198604   0.062614   0.214171   0.243627
   60  H  4  S   -0.159378   0.216637  -0.013195   0.014064   0.017687
   61  H  4  S   -0.598285   3.604449  -0.116738  -0.762349   1.179141
   62  H  4  X    0.000283   0.000329  -0.000644   0.000400   0.000231
   63  H  4  Y    0.019910   0.001671   0.001158  -0.000033   0.015478
   64  H  4  Z    0.022097  -0.001654   0.002273   0.024520  -0.008876
   65  H  4  S   -2.005665   0.916279  -0.122492  -0.455997   0.909570
   66  H  4  X    0.018467  -0.005944  -0.730792   0.053587  -0.019070
   67  H  4  Y    0.137139   0.193692   0.014758  -0.338319   0.591259
   68  H  4  Z    0.221327   0.131921   0.051760   0.421304  -0.845832
   69  H  5  S    0.028953  -0.054854   0.011665   0.155943   0.047329
   70  H  5  S    1.537806   1.073253   0.208308   2.743858   1.915044
   71  H  5  X   -0.000557   0.000384   0.003145   0.000090  -0.000109
   72  H  5  Y   -0.015794   0.002029   0.000390   0.016403  -0.012622
   73  H  5  Z   -0.007788   0.016191  -0.002584  -0.017774  -0.017521
   74  H  5  S   -1.440550  -3.085049  -0.014398  -0.006873   2.701811
   75  H  5  X   -0.033857   0.029669   0.831273  -0.052771  -0.014672
   76  H  5  Y   -0.471662  -0.048566  -0.054806  -0.029211  -0.831196
   77  H  5  Z   -0.034630   0.604765  -0.045370  -0.520034  -0.867441

                     26         27         28         29         30
                    0.3082     0.3152     0.3553     0.3770     0.4045
                     A          A          A          A          A   
    1  C  1  S   -0.005705  -0.030055  -0.000452  -0.019734   0.040271
    2  C  1  S   -0.025018  -0.126817  -0.000885  -0.058878  -0.016969
    3  C  1  S    0.242253   1.423646   0.012271   1.767464  -2.124567
    4  C  1  X   -0.057688   0.011977  -0.246432   0.004384  -0.001393
    5  C  1  Y   -0.026279  -0.137271   0.007469   0.279641   0.055061
    6  C  1  Z   -0.049303  -0.248230  -0.000326  -0.076026  -0.000333
    7  C  1  X   -0.337933   0.055529  -0.969644   0.075147  -0.015833
    8  C  1  Y    0.073436   0.210075   0.035605   3.091100   0.306173
    9  C  1  Z    0.495306   2.258034  -0.044107   1.729035  -1.811394
   10  C  1 XX   -0.006404  -0.026317  -0.000171  -0.013488   0.018373
   11  C  1 YY   -0.001613   0.001520   0.000241   0.006493   0.008548
   12  C  1 ZZ    0.008017   0.024798  -0.000070   0.006995  -0.026921
   13  C  1 XY   -0.034144   0.006701   0.011052  -0.000474  -0.000833
   14  C  1 XZ   -0.018016   0.003027  -0.029604  -0.000963  -0.000695
   15  C  1 YZ   -0.003897  -0.022849  -0.000247  -0.050419  -0.010021
   16  C  1  S    1.423509   5.022871   0.070800   0.100126  -6.257721
   17  C  1  X   -0.110074  -0.029094  -1.112464   0.115514   0.000812
   18  C  1  Y   -0.741045  -3.538208   0.046591   4.841484   1.589060
   19  C  1  Z    0.489426   1.433095   0.015126  -0.067997  -1.788341
   20  C  1 XX   -0.018849  -0.080137   0.000204  -0.077306   0.530554
   21  C  1 YY   -0.118950  -0.547451   0.007192  -0.334774   0.609413
   22  C  1 ZZ    0.137799   0.627588  -0.007395   0.412080  -1.139967
   23  C  1 XY    0.506557  -0.107966  -0.225987  -0.004500   0.030846
   24  C  1 XZ    0.005028   0.001340   0.076529   0.017225   0.007641
   25  C  1 YZ    0.190161   1.033958   0.015943   0.308837   0.269512
   26  C  2  S    0.006716   0.026974  -0.000241   0.010238   0.032405
   27  C  2  S    0.026888   0.106745  -0.000121   0.028051  -0.012444
   28  C  2  S   -0.355210  -1.512205   0.017585  -0.553876  -0.281161
   29  C  2  X   -0.109916   0.025421   0.044300  -0.000287  -0.002033
   30  C  2  Y    0.006544   0.033567  -0.003720   0.034732  -0.203098
   31  C  2  Z   -0.004839   0.019284  -0.000546  -0.018321   0.035008
   32  C  2  X   -0.629640   0.117258   0.446151  -0.043123   0.018668
   33  C  2  Y   -0.093667  -0.479686  -0.042433   0.183518  -2.267772
   34  C  2  Z    0.599503   2.945181  -0.036787   2.009479  -2.948901
   35  C  2 XX    0.005653   0.027886   0.000147   0.007186   0.005642
   36  C  2 YY    0.010984   0.050624  -0.000295   0.011123  -0.021305
   37  C  2 ZZ   -0.016636  -0.078510   0.000149  -0.018309   0.015663
   38  C  2 XY    0.034862  -0.006631  -0.010228   0.000059   0.001084
   39  C  2 XZ    0.024277  -0.003920   0.015227  -0.000010   0.000287
   40  C  2 YZ   -0.004359  -0.020785  -0.000795   0.006277  -0.007337
   41  C  2  S   -1.149304  -4.024306  -0.080064   0.617567   0.704997
   42  C  2  X   -0.458157   0.077623   0.535579  -0.039357   0.023877
   43  C  2  Y    0.566853   2.583514  -0.029486  -0.626762  -2.754357
   44  C  2  Z    0.862556   3.825095   0.016597   0.601994  -1.898651
   45  C  2 XX    0.063808   0.352568  -0.004902   0.142620   0.900459
   46  C  2 YY    0.069996   0.377391  -0.004835   0.772657  -0.963710
   47  C  2 ZZ   -0.133805  -0.729959   0.009737  -0.915277   0.063251
   48  C  2 XY   -0.357250   0.067884  -0.180299  -0.001567   0.014685
   49  C  2 XZ   -0.159611   0.024769   0.326761   0.014280   0.004848
   50  C  2 YZ    0.214221   1.132016   0.009102   0.721836   0.124466
   51  H  3  S   -0.009090  -0.019016   0.000262   0.054512  -0.034902
   52  H  3  S   -0.593417  -2.918808   0.066723  -3.277439   6.792024
   53  H  3  X    0.004863  -0.000598   0.000123  -0.000001   0.000008
   54  H  3  Y   -0.000339  -0.000560  -0.000117   0.000429   0.001992
   55  H  3  Z   -0.007062  -0.033887  -0.000107  -0.009545   0.008871
   56  H  3  S   -0.687579  -2.821242  -0.002986  -0.564002   3.007820
   57  H  3  X    1.490820  -0.308161  -0.384368  -0.017274   0.053752
   58  H  3  Y    0.218520   1.021750  -0.011268   0.478378  -1.435195
   59  H  3  Z   -0.206139  -1.050691  -0.012921   0.742409  -0.882211
   60  H  4  S   -0.016339  -0.049331   0.000701   0.026375   0.039077
   61  H  4  S   -0.062580  -0.558372  -0.053392   4.310562   0.162779
   62  H  4  X    0.004999  -0.000596  -0.011939   0.000147  -0.000480
   63  H  4  Y    0.000407  -0.001064   0.000257   0.005047   0.003908
   64  H  4  Z    0.000440   0.004016   0.000265   0.002839   0.000755
   65  H  4  S   -0.253022  -1.296318   0.009850   4.140982   0.211776
   66  H  4  X    1.265698  -0.249970   0.719003   0.032056   0.049352
   67  H  4  Y    0.056325   0.140052  -0.052993  -0.098655  -0.294934
   68  H  4  Z    0.129576   0.770335  -0.003003   1.549625  -0.431360
   69  H  5  S    0.004486   0.045008   0.000988   0.008925   0.021849
   70  H  5  S    0.587016   3.272187  -0.022393  -2.679750   0.508849
   71  H  5  X   -0.006325   0.001379  -0.010033   0.000137   0.000110
   72  H  5  Y    0.000820   0.008320   0.000624   0.014433   0.000603
   73  H  5  Z   -0.006398  -0.032173  -0.000174  -0.018150   0.001647
   74  H  5  S    0.811478   3.576376  -0.006409  -3.859624  -0.962078
   75  H  5  X   -0.457484   0.077722   1.619622  -0.033118  -0.027425
   76  H  5  Y   -0.104096  -0.537211  -0.031533  -0.397121  -0.215507
   77  H  5  Z    0.052590   0.406806  -0.016056  -0.907718  -0.199900

                     31         32         33         34         35
                    0.4382     0.4436     0.4483     0.4763     0.4831
                     A          A          A          A          A   
    1  C  1  S    0.064926   0.013331   0.000567   0.022255  -0.007884
    2  C  1  S    0.031554  -0.048665  -0.001837  -0.026264   0.023283
    3  C  1  S   -4.201749   0.767217   0.200013  -2.206255   0.646066
    4  C  1  X    0.006573  -0.042930   0.246169   0.013566   0.044354
    5  C  1  Y    0.027040  -0.062435  -0.008234  -0.132482  -0.046729
    6  C  1  Z    0.082902  -0.000449   0.014245  -0.013403   0.034678
    7  C  1  X    0.040880  -0.219433   1.808000   0.035042   0.311144
    8  C  1  Y   -0.614560   1.191088   0.478735  -3.627490   0.749115
    9  C  1  Z    5.905289   3.759309   0.507606  -0.833308   0.971150
   10  C  1 XX    0.017930  -0.008393   0.000028  -0.012868   0.000313
   11  C  1 YY   -0.026582  -0.005277  -0.001626   0.012943  -0.003687
   12  C  1 ZZ    0.008652   0.013670   0.001598  -0.000075   0.003374
   13  C  1 XY   -0.000728  -0.000912   0.001952   0.000188   0.004591
   14  C  1 XZ    0.000298   0.000522  -0.013924  -0.002795   0.030530
   15  C  1 YZ    0.019934   0.011887  -0.001918  -0.011496  -0.014356
   16  C  1  S   -6.831156  -3.955889  -1.146014   3.610113  -0.522375
   17  C  1  X    0.008988  -0.098554   1.141569   0.052251  -0.154328
   18  C  1  Y   -0.598915   1.618996   0.374919  -0.791527   0.383063
   19  C  1  Z    1.102767   0.242111  -0.101851   0.785617  -0.020865
   20  C  1 XX    0.579649   0.267872   0.060371  -0.457872   0.005394
   21  C  1 YY   -1.940248  -0.767290  -0.081527   0.502113  -0.360040
   22  C  1 ZZ    1.360599   0.499418   0.021156  -0.044241   0.354646
   23  C  1 XY   -0.074718  -0.002097  -0.263612   0.003088   0.297721
   24  C  1 XZ   -0.005270   0.056549  -0.118313   0.073480  -1.417692
   25  C  1 YZ    0.631842  -2.613273  -0.358016  -0.125200  -0.420441
   26  C  2  S    0.062209   0.028894  -0.000084   0.053322   0.013005
   27  C  2  S   -0.000393  -0.024367  -0.009818   0.014492  -0.013631
   28  C  2  S   -6.426628  -2.519656  -0.083541  -4.241385  -1.785301
   29  C  2  X    0.003317   0.019762  -0.253785  -0.024656   0.250400
   30  C  2  Y    0.126806   0.065651   0.010257  -0.135914  -0.009322
   31  C  2  Z    0.030417  -0.082546   0.005163  -0.178032   0.017199
   32  C  2  X    0.008442   0.010912  -0.692245  -0.050768   1.519360
   33  C  2  Y   -0.739596   3.163303   0.442533  -1.460562  -0.009561
   34  C  2  Z    3.071163   2.757321   0.471996  -2.401463   0.883709
   35  C  2 XX    0.033209  -0.000637  -0.000905  -0.010782   0.000721
   36  C  2 YY   -0.012969   0.026716   0.003841   0.016455   0.004299
   37  C  2 ZZ   -0.020239  -0.026079  -0.002936  -0.005673  -0.005020
   38  C  2 XY   -0.000017  -0.001089   0.004376   0.000113  -0.004249
   39  C  2 XZ   -0.000077   0.002551  -0.014915  -0.002002  -0.001370
   40  C  2 YZ   -0.021092   0.053879   0.008430   0.013065   0.010706
   41  C  2  S   -0.717456   1.296369   0.842164  -4.686576   0.242532
   42  C  2  X    0.007104   0.097618  -1.177226  -0.075404   0.527418
   43  C  2  Y    0.507163   0.035701  -0.034671  -0.237964  -0.120858
   44  C  2  Z   -0.229159  -0.136840  -0.129095   0.145379  -0.049617
   45  C  2 XX    0.038165   0.217907   0.029881  -0.143198  -0.043359
   46  C  2 YY    0.497828   1.362176   0.117986   0.101479  -0.040486
   47  C  2 ZZ   -0.535993  -1.580082  -0.147867   0.041719   0.083845
   48  C  2 XY    0.015561  -0.001456  -0.660712  -0.047763   0.968585
   49  C  2 XZ    0.021115  -0.173436   1.042970   0.092155   0.283986
   50  C  2 YZ   -0.361642  -0.837233  -0.023401  -0.374282   0.196414
   51  H  3  S   -0.094550   0.183169   0.029205   0.127440   0.057097
   52  H  3  S    1.198633  -3.091619  -0.744922   6.454093   0.196548
   53  H  3  X   -0.000157   0.000742  -0.017165  -0.001642   0.021846
   54  H  3  Y   -0.018957   0.012916   0.000980   0.029344   0.001921
   55  H  3  Z   -0.020876   0.024841   0.004365   0.003117   0.008139
   56  H  3  S   -0.041517  -0.193746  -0.033187   0.891973   0.090151
   57  H  3  X   -0.015097  -0.012567   0.746801   0.090673  -1.379085
   58  H  3  Y   -0.402701  -0.216234   0.154114  -3.236817  -0.095468
   59  H  3  Z   -0.110235   1.441280   0.137859  -0.957939  -0.539830
   60  H  4  S   -0.043329  -0.080950  -0.020208   0.019143  -0.083228
   61  H  4  S    6.124163   9.297966   1.713941  -5.794384   1.908034
   62  H  4  X    0.000270  -0.002093   0.016732   0.001509  -0.004517
   63  H  4  Y    0.007528  -0.017877  -0.002783   0.003790   0.002746
   64  H  4  Z   -0.005703  -0.012109   0.000813  -0.001193   0.012065
   65  H  4  S    1.410228   1.888708   0.357943  -0.884831   0.195585
   66  H  4  X    0.006814   0.278394  -1.267706  -0.107599  -0.143185
   67  H  4  Y    1.099088   2.977752   0.519502  -1.592680   0.329423
   68  H  4  Z    1.838721   0.129980   0.045170  -1.214353   0.102885
   69  H  5  S   -0.178328   0.088598   0.016054   0.110125   0.019592
   70  H  5  S    9.099962  -2.479668  -0.772029   4.654766  -0.848337
   71  H  5  X    0.000248  -0.002772   0.007873   0.000494   0.013152
   72  H  5  Y   -0.006855  -0.005599  -0.000965   0.022490   0.001574
   73  H  5  Z    0.007156  -0.003836  -0.001929   0.003280  -0.004363
   74  H  5  S    1.541008  -0.509921  -0.201830   0.812187  -0.193118
   75  H  5  X   -0.038196   0.159042  -0.421267  -0.020356  -1.116167
   76  H  5  Y   -2.114384   1.456490   0.354098  -2.540104   0.329913
   77  H  5  Z    1.127751   0.984440  -0.001422   1.419866   0.031670

                     36         37         38         39         40
                    0.4873     0.4932     0.5050     0.5566     0.5628
                     A          A          A          A          A   
    1  C  1  S    0.009024   0.104226  -0.024979   0.078299   0.011125
    2  C  1  S   -0.104425  -0.005195  -0.027746   0.023044  -0.001675
    3  C  1  S   -1.427769  -8.294426   4.294407  -8.363419  -1.047759
    4  C  1  X    0.027217   0.001393  -0.002578  -0.002142  -0.071790
    5  C  1  Y    0.169841   0.007305  -0.109611  -0.061658  -0.005397
    6  C  1  Z   -0.246868   0.323439  -0.086172  -0.143199  -0.023226
    7  C  1  X    0.218720   0.008761  -0.059087   0.117843  -1.360529
    8  C  1  Y   -0.304741  -0.868885  -7.074944  -0.161549  -0.173374
    9  C  1  Z   -2.678183  -2.648540   1.389013  -1.599018  -0.706435
   10  C  1 XX   -0.010844   0.008547  -0.006096   0.027003   0.002088
   11  C  1 YY    0.012231   0.031775  -0.008791  -0.008119   0.000200
   12  C  1 ZZ   -0.001387  -0.040322   0.014888  -0.018883  -0.002288
   13  C  1 XY    0.002529   0.001276   0.000304  -0.000679  -0.002774
   14  C  1 XZ    0.006554   0.002689   0.001313  -0.007557   0.055216
   15  C  1 YZ    0.054415  -0.002379   0.013314  -0.027718  -0.002468
   16  C  1  S    4.614768  -4.965825  -4.841611 -14.599646  -2.195741
   17  C  1  X    0.000538  -0.028812  -0.030968   0.023657  -0.223384
   18  C  1  Y   -0.103638  -0.557017  -1.878752   0.909835   0.155093
   19  C  1  Z    0.367137  -0.189874  -0.984428  -4.825887  -0.730630
   20  C  1 XX   -0.313085   0.295895   0.568645  -0.041869   0.009140
   21  C  1 YY    0.410561   2.648929  -0.661361  -1.818149  -0.024603
   22  C  1 ZZ   -0.097475  -2.944825   0.092716   1.860018   0.015463
   23  C  1 XY    0.088164   0.099753   0.071397   0.087850  -1.608746
   24  C  1 XZ   -0.288179  -0.132715  -0.086375   0.250018  -2.155319
   25  C  1 YZ    0.753454   0.394051   0.269520   0.188397   0.073220
   26  C  2  S   -0.002844  -0.087647  -0.031544  -0.050981  -0.009661
   27  C  2  S    0.093475  -0.080782  -0.010535   0.134216   0.014027
   28  C  2  S    1.864776  10.044311   2.823482   2.910332   0.845951
   29  C  2  X    0.037623   0.016949   0.000407  -0.044011   0.315049
   30  C  2  Y    0.070149  -0.019726  -0.017461   0.003414  -0.003466
   31  C  2  Z   -0.198933   0.174979  -0.000635  -0.081615  -0.019118
   32  C  2  X    0.279069   0.118581   0.077234  -0.171394   1.417878
   33  C  2  Y   -0.615450   1.062674   3.278179   0.616854  -0.022623
   34  C  2  Z   -2.926382  -3.069582   2.534055  -1.461652  -0.648931
   35  C  2 XX    0.013165  -0.049479   0.002699   0.010956  -0.000738
   36  C  2 YY   -0.014063   0.004267   0.006904  -0.027382  -0.001944
   37  C  2 ZZ    0.000897   0.045213  -0.009603   0.016427   0.002683
   38  C  2 XY    0.001126   0.000379  -0.000332   0.003146  -0.027239
   39  C  2 XZ   -0.001912  -0.000441  -0.000917  -0.002366   0.032998
   40  C  2 YZ   -0.031214   0.006558   0.009943  -0.013943  -0.001035
   41  C  2  S   -4.459519   5.210585   5.838242  15.571868   2.323933
   42  C  2  X    0.079973   0.038776   0.006283  -0.038398   0.385203
   43  C  2  Y   -0.255097   0.444960   0.964586  -1.173954  -0.199564
   44  C  2  Z    0.382497  -0.703739  -0.714975  -3.785481  -0.632494
   45  C  2 XX    0.247606  -0.329718  -0.026740  -0.373941  -0.064555
   46  C  2 YY    0.311150  -0.533404   1.471536  -0.932497  -0.120971
   47  C  2 ZZ   -0.558756   0.863123  -1.444796   1.306438   0.185526
   48  C  2 XY    0.178786   0.065574   0.064616  -0.007340  -0.056515
   49  C  2 XZ    0.171671   0.017858   0.072878   0.175318  -1.887544
   50  C  2 YZ   -0.944801   0.227501  -0.348943   1.032603   0.091897
   51  H  3  S   -0.178656  -0.029584   0.046241  -0.153013  -0.012191
   52  H  3  S    2.589357  -3.804761  -7.365615  -3.005958  -0.101011
   53  H  3  X    0.004313   0.002540   0.001346  -0.001233   0.001616
[...]
 II,JST,KST,LST =  1  1  1  1 NREC =         1 INTLOC =    1
 II,JST,KST,LST =  2  1  1  1 NREC =         1 INTLOC =    1
 II,JST,KST,LST =  3  1  1  1 NREC =         1 INTLOC =    1
 II,JST,KST,LST =  4  1  1  1 NREC =         1 INTLOC =    1
 II,JST,KST,LST =  5  1  1  1 NREC =         1 INTLOC =    1
 II,JST,KST,LST =  6  1  1  1 NREC =         1 INTLOC =    1
 II,JST,KST,LST =  7  1  1  1 NREC =         1 INTLOC =    4
 II,JST,KST,LST =  8  1  1  1 NREC =         1 INTLOC =   49
 II,JST,KST,LST =  9  1  1  1 NREC =         1 INTLOC =   49
 II,JST,KST,LST = 10  1  1  1 NREC =         1 INTLOC = 1273
 II,JST,KST,LST = 11  1  1  1 NREC =         1 INTLOC = 1273
 II,JST,KST,LST = 12  1  1  1 NREC =         1 INTLOC = 1273
 II,JST,KST,LST = 13  1  1  1 NREC =         1 INTLOC = 1273
 II,JST,KST,LST = 14  1  1  1 NREC =         1 INTLOC = 1609
 II,JST,KST,LST = 15  1  1  1 NREC =         1 INTLOC = 2918
 II,JST,KST,LST = 16  1  1  1 NREC =         1 INTLOC = 5188
 II,JST,KST,LST = 17  1  1  1 NREC =         1 INTLOC = 6958
 II,JST,KST,LST = 18  1  1  1 NREC =         1 INTLOC =10717
 II,JST,KST,LST = 19  1  1  1 NREC =         1 INTLOC =10717
 II,JST,KST,LST = 20  1  1  1 NREC =         2 INTLOC = 1285
 II,JST,KST,LST = 21  1  1  1 NREC =         2 INTLOC = 1285
 II,JST,KST,LST = 22  1  1  1 NREC =         2 INTLOC =13307
 II,JST,KST,LST = 23  1  1  1 NREC =         3 INTLOC =11293
 II,JST,KST,LST = 24  1  1  1 NREC =         4 INTLOC =10192
 II,JST,KST,LST = 25  1  1  1 NREC =         4 INTLOC =14867
 II,JST,KST,LST = 26  1  1  1 NREC =         5 INTLOC =12908
 II,JST,KST,LST = 27  1  1  1 NREC =         6 INTLOC =11919
 II,JST,KST,LST = 28  1  1  1 NREC =         7 INTLOC = 5173
 II,JST,KST,LST = 29  1  1  1 NREC =        11 INTLOC = 3007
 II,JST,KST,LST = 30  1  1  1 NREC =        11 INTLOC = 3007
 II,JST,KST,LST = 31  1  1  1 NREC =        11 INTLOC = 9312
 II,JST,KST,LST = 32  1  1  1 NREC =        14 INTLOC = 2020
 II,JST,KST,LST = 33  1  1  1 NREC =        15 INTLOC =11135
 II,JST,KST,LST = 34  1  1  1 NREC =        16 INTLOC =12243
 II,JST,KST,LST = 35  1  1  1 NREC =        18 INTLOC = 4313
 II,JST,KST,LST = 36  1  1  1 NREC =        19 INTLOC = 9405
 II,JST,KST,LST = 37  1  1  1 NREC =        21 INTLOC = 2592
 II,JST,KST,LST = 38  1  1  1 NREC =        23 INTLOC =11592
 II,JST,KST,LST = 39  1  1  1 NREC =        27 INTLOC = 4658
 II,JST,KST,LST = 40  1  1  1 NREC =        39 INTLOC =11445
 II,JST,KST,LST = 41  1  1  1 NREC =        39 INTLOC =11445
 II,JST,KST,LST = 42  1  1  1 NREC =        39 INTLOC =11445
 II,JST,KST,LST = 43  1  1  1 NREC =        46 INTLOC = 2954
 II,JST,KST,LST = 44  1  1  1 NREC =        47 INTLOC = 1498
 II,JST,KST,LST = 45  1  1  1 NREC =        49 INTLOC = 6624
 II,JST,KST,LST = 46  1  1  1 NREC =        49 INTLOC = 6624
 II,JST,KST,LST = 47  1  1  1 NREC =        57 INTLOC =11221
 II,JST,KST,LST = 48  1  1  1 NREC =        67 INTLOC = 4483
 II,JST,KST,LST = 49  1  1  1 NREC =        80 INTLOC = 6839
 II,JST,KST,LST = 50  1  1  1 NREC =        88 INTLOC = 2309
 II,JST,KST,LST = 51  1  1  1 NREC =       105 INTLOC =13740
 II,JST,KST,LST = 52  1  1  1 NREC =       122 INTLOC = 1500
 II,JST,KST,LST = 53  1  1  1 NREC =       129 INTLOC =10654
 II,JST,KST,LST = 54  1  1  1 NREC =       135 INTLOC = 7370
 II,JST,KST,LST = 55  1  1  1 NREC =       143 INTLOC = 2843
 II,JST,KST,LST = 56  1  1  1 NREC =       150 INTLOC = 7371
 II,JST,KST,LST = 57  1  1  1 NREC =       170 INTLOC = 6750
 II,JST,KST,LST = 58  1  1  1 NREC =       175 INTLOC =14091
 II,JST,KST,LST = 59  1  1  1 NREC =       187 INTLOC = 4780
 II,JST,KST,LST = 60  1  1  1 NREC =       196 INTLOC =13766
 II,JST,KST,LST = 61  1  1  1 NREC =       205 INTLOC =13915
 II,JST,KST,LST = 62  1  1  1 NREC =       217 INTLOC =12965
 II,JST,KST,LST = 63  1  1  1 NREC =       226 INTLOC = 3044
 II,JST,KST,LST = 64  1  1  1 NREC =       232 INTLOC = 8253
 II,JST,KST,LST = 65  1  1  1 NREC =       243 INTLOC =12190
 II,JST,KST,LST = 66  1  1  1 NREC =       250 INTLOC = 3842
 SCHWARZ INEQUALITY TEST SKIPPED       33178 INTEGRAL BLOCKS.
 TOTAL NUMBER OF NONZERO TWO-ELECTRON INTEGRALS =            67088390
       4481 INTEGRAL RECORDS WERE STORED ON DISK FILE  8.
  ...... END OF TWO-ELECTRON INTEGRALS .....
 CPU     0: STEP CPU TIME=     0.27 TOTAL CPU TIME=         23.5 (      0.4 MIN)
 TOTAL WALL CLOCK TIME=         23.9 SECONDS, CPU UTILIZATION IS    98.46%

          ---------------------------------------------
          MONOMER ELECTROSTATIC INTERACTION (OWN BASIS)
          ---------------------------------------------

          -------------
          GUESS OPTIONS
          -------------
          GUESS =MOSAVED           NORB  =       0          NORDER=       0
          MIX   =       F          PRTMO =       F          PUNMO =       F
          TOLZ  = 1.0E-08          TOLE  = 1.0E-05
          SYMDEN=       F          PURIFY=       F

 INITIAL GUESS ORBITALS GENERATED BY MOSAVED  ROUTINE.

 STATISTICS FOR GENERATION OF SYMMETRY ORBITAL -Q- MATRIX
 NUMBER OF CARTESIAN ATOMIC ORBITALS=        154
 NUMBER OF SPHERICAL CONTAMINANTS DROPPED=     8
 NUMBER OF LINEARLY DEPENDENT MOS DROPPED=     0
 TOTAL NUMBER OF MOS IN VARIATION SPACE=     146
 ...... END OF INITIAL ORBITAL SELECTION ......
 CPU     0: STEP CPU TIME=     0.01 TOTAL CPU TIME=         23.5 (      0.4 MIN)
 TOTAL WALL CLOCK TIME=         23.9 SECONDS, CPU UTILIZATION IS    98.46%

          ---------------------------
                  UHF SCF CALCULATION
          ---------------------------

 FINAL UHF ENERGY IS     -155.3038237756 AFTER   1 ITERATIONS
 ...... END OF UHF CALCULATION ......
 CPU     0: STEP CPU TIME=     0.08 TOTAL CPU TIME=         23.6 (      0.4 MIN)
 TOTAL WALL CLOCK TIME=         24.0 SECONDS, CPU UTILIZATION IS    98.41%

          -------------
          GUESS OPTIONS
          -------------
          GUESS =MOSAVED           NORB  =       0          NORDER=       0
          MIX   =       F          PRTMO =       F          PUNMO =       F
          TOLZ  = 1.0E-08          TOLE  = 1.0E-05
          SYMDEN=       F          PURIFY=       F

 INITIAL GUESS ORBITALS GENERATED BY MOSAVED  ROUTINE.

 STATISTICS FOR GENERATION OF SYMMETRY ORBITAL -Q- MATRIX
 NUMBER OF CARTESIAN ATOMIC ORBITALS=        154
 NUMBER OF SPHERICAL CONTAMINANTS DROPPED=     8
 NUMBER OF LINEARLY DEPENDENT MOS DROPPED=     0
 TOTAL NUMBER OF MOS IN VARIATION SPACE=     146
 ...... END OF INITIAL ORBITAL SELECTION ......
 CPU     0: STEP CPU TIME=     0.01 TOTAL CPU TIME=         23.6 (      0.4 MIN)
 TOTAL WALL CLOCK TIME=         24.0 SECONDS, CPU UTILIZATION IS    98.41%

          ---------------------------
                  UHF SCF CALCULATION
          ---------------------------

 DIRECT SCF CALCULATION, SCHWRZ=T   FDIFF=T
 SCHWARZ INEQUALITY OVERHEAD:     11935 INTEGRALS, T=        0.00

 FINAL UHF ENERGY IS     -332.1716198876 AFTER   1 ITERATIONS
 ...... END OF UHF CALCULATION ......
 CPU     0: STEP CPU TIME=     0.27 TOTAL CPU TIME=         23.9 (      0.4 MIN)
 TOTAL WALL CLOCK TIME=         24.3 SECONDS, CPU UTILIZATION IS    98.39%

 XEDA STEP ENERGY SUMMATION
 ETOT =       -155.30382378     ENUC =        103.43639766
 EEXCH=        -22.94786885

          --------------------------------------------------
          MONOMER EXCHANGE-REPULSION INTERACTION (OWN BASIS)
          --------------------------------------------------

          -------------
          GUESS OPTIONS
          -------------
          GUESS =MOSAVED           NORB  =       0          NORDER=       0
          MIX   =       F          PRTMO =       F          PUNMO =       F
          TOLZ  = 1.0E-08          TOLE  = 1.0E-05
          SYMDEN=       F          PURIFY=       F

 INITIAL GUESS ORBITALS GENERATED BY MOSAVED  ROUTINE.

 STATISTICS FOR GENERATION OF SYMMETRY ORBITAL -Q- MATRIX
 NUMBER OF CARTESIAN ATOMIC ORBITALS=        154
 NUMBER OF SPHERICAL CONTAMINANTS DROPPED=     8
 NUMBER OF LINEARLY DEPENDENT MOS DROPPED=     0
 TOTAL NUMBER OF MOS IN VARIATION SPACE=     146
 ...... END OF INITIAL ORBITAL SELECTION ......
 CPU     0: STEP CPU TIME=     0.01 TOTAL CPU TIME=         23.9 (      0.4 MIN)
 TOTAL WALL CLOCK TIME=         24.3 SECONDS, CPU UTILIZATION IS    98.40%

          ---------------------------
                  UHF SCF CALCULATION
          ---------------------------

 FINAL UHF ENERGY IS     -154.6257702039 AFTER   1 ITERATIONS
 ...... END OF UHF CALCULATION ......
 CPU     0: STEP CPU TIME=     0.08 TOTAL CPU TIME=         23.9 (      0.4 MIN)
 TOTAL WALL CLOCK TIME=         24.3 SECONDS, CPU UTILIZATION IS    98.35%

 XEDA STEP ENERGY SUMMATION
 ETOT =       -154.62577020     ENUC =        103.43639766

          ---------------------------------------------
          MONOMER ELECTROSTATIC INTERACTION (ALL BASIS)
          ---------------------------------------------

          -------------
          GUESS OPTIONS
          -------------
          GUESS =MOSAVED           NORB  =       0          NORDER=       0
          MIX   =       F          PRTMO =       F          PUNMO =       F
          TOLZ  = 1.0E-08          TOLE  = 1.0E-05
          SYMDEN=       F          PURIFY=       F

 INITIAL GUESS ORBITALS GENERATED BY MOSAVED  ROUTINE.

 STATISTICS FOR GENERATION OF SYMMETRY ORBITAL -Q- MATRIX
 NUMBER OF CARTESIAN ATOMIC ORBITALS=        154
 NUMBER OF SPHERICAL CONTAMINANTS DROPPED=     8
 NUMBER OF LINEARLY DEPENDENT MOS DROPPED=     0
 TOTAL NUMBER OF MOS IN VARIATION SPACE=     146
 ...... END OF INITIAL ORBITAL SELECTION ......
 CPU     0: STEP CPU TIME=     0.01 TOTAL CPU TIME=         24.0 (      0.4 MIN)
 TOTAL WALL CLOCK TIME=         24.4 SECONDS, CPU UTILIZATION IS    98.35%

          ---------------------------
                  UHF SCF CALCULATION
          ---------------------------

 FINAL UHF ENERGY IS     -155.3103072776 AFTER   1 ITERATIONS
 ...... END OF UHF CALCULATION ......
 CPU     0: STEP CPU TIME=     0.08 TOTAL CPU TIME=         24.0 (      0.4 MIN)
 TOTAL WALL CLOCK TIME=         24.4 SECONDS, CPU UTILIZATION IS    98.31%

          -------------
          GUESS OPTIONS
          -------------
          GUESS =MOSAVED           NORB  =       0          NORDER=       0
          MIX   =       F          PRTMO =       F          PUNMO =       F
          TOLZ  = 1.0E-08          TOLE  = 1.0E-05
          SYMDEN=       F          PURIFY=       F

 INITIAL GUESS ORBITALS GENERATED BY MOSAVED  ROUTINE.

 STATISTICS FOR GENERATION OF SYMMETRY ORBITAL -Q- MATRIX
 NUMBER OF CARTESIAN ATOMIC ORBITALS=        154
 NUMBER OF SPHERICAL CONTAMINANTS DROPPED=     8
 NUMBER OF LINEARLY DEPENDENT MOS DROPPED=     0
 TOTAL NUMBER OF MOS IN VARIATION SPACE=     146
 ...... END OF INITIAL ORBITAL SELECTION ......
 CPU     0: STEP CPU TIME=     0.01 TOTAL CPU TIME=         24.0 (      0.4 MIN)
 TOTAL WALL CLOCK TIME=         24.4 SECONDS, CPU UTILIZATION IS    98.31%

          ---------------------------
                  UHF SCF CALCULATION
          ---------------------------

 DIRECT SCF CALCULATION, SCHWRZ=T   FDIFF=T
 SCHWARZ INEQUALITY OVERHEAD:     11935 INTEGRALS, T=        0.00

 FINAL UHF ENERGY IS     -332.1942467044 AFTER   1 ITERATIONS
 ...... END OF UHF CALCULATION ......
 CPU     0: STEP CPU TIME=     0.27 TOTAL CPU TIME=         24.3 (      0.4 MIN)
 TOTAL WALL CLOCK TIME=         24.7 SECONDS, CPU UTILIZATION IS    98.28%

 XEDA STEP ENERGY SUMMATION
 ETOT =       -155.31030728     ENUC =        103.43639766
 EEXCH=        -22.94847708

          --------------------------------------------------
          MONOMER EXCHANGE-REPULSION INTERACTION (ALL BASIS)
          --------------------------------------------------

          -------------
          GUESS OPTIONS
          -------------
          GUESS =MOSAVED           NORB  =       0          NORDER=       0
          MIX   =       F          PRTMO =       F          PUNMO =       F
          TOLZ  = 1.0E-08          TOLE  = 1.0E-05
          SYMDEN=       F          PURIFY=       F

 INITIAL GUESS ORBITALS GENERATED BY MOSAVED  ROUTINE.

 STATISTICS FOR GENERATION OF SYMMETRY ORBITAL -Q- MATRIX
 NUMBER OF CARTESIAN ATOMIC ORBITALS=        154
 NUMBER OF SPHERICAL CONTAMINANTS DROPPED=     8
 NUMBER OF LINEARLY DEPENDENT MOS DROPPED=     0
 TOTAL NUMBER OF MOS IN VARIATION SPACE=     146
 ...... END OF INITIAL ORBITAL SELECTION ......
 CPU     0: STEP CPU TIME=     0.01 TOTAL CPU TIME=         24.3 (      0.4 MIN)
 TOTAL WALL CLOCK TIME=         24.7 SECONDS, CPU UTILIZATION IS    98.28%

          ---------------------------
                  UHF SCF CALCULATION
          ---------------------------

 FINAL UHF ENERGY IS     -154.6305893291 AFTER   1 ITERATIONS
 ...... END OF UHF CALCULATION ......
 CPU     0: STEP CPU TIME=     0.08 TOTAL CPU TIME=         24.4 (      0.4 MIN)
 TOTAL WALL CLOCK TIME=         24.8 SECONDS, CPU UTILIZATION IS    98.23%

 XEDA STEP ENERGY SUMMATION
 ETOT =       -154.63058933     ENUC =        103.43639766

          --------------------------------
          RESULTS OF INTERACTION ANALYSIS
          --------------------------------

     ENERGY TERMS
     T   ELECTRON KINETIC AND COULOMB POTENTIAL
     X   E-E EXCHANGE COMBINE WITH DIAGNANAL VALUE
     N   NUCLEUS-NUCLEUS REPULSION ENERGY

 --------------
 MONOMER ENERGY
 --------------

 MONOMER    1

                   OWN BASIS           ALL BASIS

 T              -93.93770678        -93.93797710
 X              -11.31304948        -11.31333890
 N               27.87332588         27.87332588
 EC              -0.47435845         -0.47486633
 E              -77.85178883        -77.85285644

 MONOMER    2

                   OWN BASIS           ALL BASIS

 T              -93.93768910        -93.93795977
 X              -11.31305086        -11.31333578
 N               27.87330911         27.87330911
 EC              -0.47435768         -0.47488781
 E              -77.85178854        -77.85287425

 ------------------------------------------------------------
 SUPER MOLECULE ENERGY  USING NON-ANTISYMMETRIC WAVEFUNCTION
 (ELECTROSTATIC ENERGY: T N CHANGE)
 ------------------------------------------------------------

              FROM OWN BASIS      FROM ALL BASIS
 T             -235.79235259       -235.79822786
 X              -22.62610034        -22.62667467
 N              103.43639766        103.43639766
 E             -154.98205527       -154.98850487

 ----------------------------------------------------------------------
 SUPER MOLECULE ENERGY  USING ANTISYMMETRIC NONORTHONORMAL WAVEFUNCTION
 (EXCHANGE ENERGY: ONLY X CHANGES)
 ----------------------------------------------------------------------

              FROM OWN BASIS      FROM ALL BASIS
 T             -235.79235259       -235.79822786
 X              -22.94786885        -22.94847708
 N              103.43639766        103.43639766
 E             -155.30382378       -155.31030728

 -----------------------------------------------------------------------
 SUPER MOLECULE ENERGY  USING ANTISYMMETRIC AND ORTHONORMAL WAVEFUNCTION
 (REPULSION ENERGY: T X CHANGE)
 -----------------------------------------------------------------------

              FROM OWN BASIS      FROM ALL BASIS
 T+X           -258.06216786       -258.06698699
 N              103.43639766        103.43639766
 E             -154.62577020       -154.63058933

 ---------------------------------------------
 SUPER MOLECULE ENERGY  USING SCF WAVEFUNCTION
 (POLARIZATION ENERGY: T X CHANGE)
 ---------------------------------------------
 T+X           -258.34623104
 N              103.43639766
 EC              -0.98577587
 E             -155.89560925


                   *******************************
                   SUMMARY OF INTERACTION ENERGIES
                     XEDA IN XIAMEN UNIVERSITY    
                    - ZHEN TANG AND PEIFENG SU -  
                   *******************************


 -------------
 OWN BASIS SET                                       HARTREE          KCAL/MOL
 -------------
 ELECTROSTATIC ENERGY                  ES=         -0.227194           -142.57
 EXCHANGE ENERGY                       EX=         -0.321769           -201.91
 REPULSION ENERGY                     REP=          0.678054            425.49
 POLARIZATION ENERGY                  POL=         -0.284063           -178.25
 ELECTRON CORRELATION                CORR=         -0.037060            -23.26
 TOTAL INTERACTION ENERGY               E=         -0.192032           -120.50
  

 -------------
 ALL BASIS SET                                       HARTREE          KCAL/MOL
 -------------
 ELECTROSTATIC ENERGY                  ES=         -0.232528           -145.91
 EXCHANGE ENERGY                       EX=         -0.321802           -201.93
 REPULSION ENERGY                     REP=          0.679718            426.53
 POLARIZATION ENERGY                  POL=         -0.279244           -175.23
 ELECTRON CORRELATION                CORR=         -0.036022            -22.60
 TOTAL INTERACTION ENERGY               E=         -0.189879           -119.15
  

                     ***************************
                     END OF INTERACTION ANALYSIS
                     ***************************

              1301896  WORDS OF DYNAMIC MEMORY USED
 EXECUTION OF GAMESS TERMINATED NORMALLY 14:32:24 25-DEC-2023    
 DDI: 263640 bytes (0.3 MB / 0 MWords) used by master data server.

 ----------------------------------------
 CPU timing information for all processes
 ========================================
 0: 23.717 + 0.683 = 24.400
 1: 23.518 + 0.542 = 24.60
 2: 23.511 + 0.605 = 24.116
 3: 23.495 + 0.547 = 24.42
 4: 23.532 + 0.635 = 24.168
 5: 23.500 + 0.558 = 24.58
 6: 23.496 + 0.584 = 24.81
 7: 23.429 + 0.545 = 23.975
 8: 23.574 + 0.619 = 24.194
 9: 23.424 + 0.559 = 23.983
 10: 23.522 + 0.554 = 24.76
 11: 23.403 + 0.549 = 23.953
 12: 23.495 + 0.578 = 24.73
 13: 23.479 + 0.505 = 23.985
 14: 23.442 + 0.600 = 24.43
 15: 23.468 + 0.535 = 24.04
 ----------------------------------------
 ddikick.x: exited gracefully.
----- accounting info -----
Files used on the master node w014 were:
-rw-r--r-- 1 xacs0647 10000  2703863 Dec 25 14:32 /job_dir/9_1685759/9.dat
-rw-r--r-- 1 xacs0647 10000      238 Dec 25 14:32 /job_dir/9_1685759/9.err
-rw-r--r-- 1 xacs0647 10000      837 Dec 25 14:31 /job_dir/9_1685759/9.F05
-rw-r--r-- 1 xacs0647 10000 49504400 Dec 25 14:32 /job_dir/9_1685759/9.F08
-rw-r--r-- 1 xacs0647 10000 48964352 Dec 25 14:32 /job_dir/9_1685759/9.F08.001
-rw-r--r-- 1 xacs0647 10000 45544048 Dec 25 14:32 /job_dir/9_1685759/9.F08.002
-rw-r--r-- 1 xacs0647 10000 48244288 Dec 25 14:32 /job_dir/9_1685759/9.F08.003
-rw-r--r-- 1 xacs0647 10000 49324384 Dec 25 14:32 /job_dir/9_1685759/9.F08.004
-rw-r--r-- 1 xacs0647 10000 51664592 Dec 25 14:32 /job_dir/9_1685759/9.F08.005
-rw-r--r-- 1 xacs0647 10000 50044448 Dec 25 14:32 /job_dir/9_1685759/9.F08.006
-rw-r--r-- 1 xacs0647 10000 50584496 Dec 25 14:32 /job_dir/9_1685759/9.F08.007
-rw-r--r-- 1 xacs0647 10000 58145168 Dec 25 14:32 /job_dir/9_1685759/9.F08.008
-rw-r--r-- 1 xacs0647 10000 45004000 Dec 25 14:32 /job_dir/9_1685759/9.F08.009
-rw-r--r-- 1 xacs0647 10000 48784336 Dec 25 14:32 /job_dir/9_1685759/9.F08.010
-rw-r--r-- 1 xacs0647 10000 46084096 Dec 25 14:32 /job_dir/9_1685759/9.F08.011
-rw-r--r-- 1 xacs0647 10000 56345008 Dec 25 14:32 /job_dir/9_1685759/9.F08.012
-rw-r--r-- 1 xacs0647 10000 54904880 Dec 25 14:32 /job_dir/9_1685759/9.F08.013
-rw-r--r-- 1 xacs0647 10000 52384656 Dec 25 14:32 /job_dir/9_1685759/9.F08.014
-rw-r--r-- 1 xacs0647 10000 51124544 Dec 25 14:32 /job_dir/9_1685759/9.F08.015
-rw-r--r-- 1 xacs0647 10000  5758720 Dec 25 14:32 /job_dir/9_1685759/9.F10
-rw-r--r-- 1 xacs0647 10000      837 Dec 25 14:31 /job_dir/9_1685759/9.inp
-rw-r--r-- 1 xacs0647 10000  2403383 Dec 25 14:32 /job_dir/9_1685759/9.out
Mon Dec 25 14:32:27 CST 2023
0.091u 0.054s 0:28.00 0.5%	0+0k 0+32io 0pf+0w
