
                                 *****************
                                 * O   R   C   A *
                                 *****************

                                            #,                                       
                                            ###                                      
                                            ####                                     
                                            #####                                    
                                            ######                                   
                                           ########,                                 
                                     ,,################,,,,,                         
                               ,,#################################,,                 
                          ,,##########################################,,             
                       ,#########################################, ''#####,          
                    ,#############################################,,   '####,        
                  ,##################################################,,,,####,       
                ,###########''''           ''''###############################       
              ,#####''   ,,,,##########,,,,          '''####'''          '####       
            ,##' ,,,,###########################,,,                        '##       
           ' ,,###''''                  '''############,,,                           
         ,,##''                                '''############,,,,        ,,,,,,###''
      ,#''                                            '''#######################'''  
     '                                                          ''''####''''         
             ,#######,   #######,   ,#######,      ##                                
            ,#'     '#,  ##    ##  ,#'     '#,    #''#        ######   ,####,        
            ##       ##  ##   ,#'  ##            #'  '#       #        #'  '#        
            ##       ##  #######   ##           ,######,      #####,   #    #        
            '#,     ,#'  ##    ##  '#,     ,#' ,#      #,         ##   #,  ,#        
             '#######'   ##     ##  '#######'  #'      '#     #####' # '####'        



                  #######################################################
                  #                        -***-                        #
                  #          Department of theory and spectroscopy      #
                  #    Directorship and core code : Frank Neese         #
                  #        Max Planck Institute fuer Kohlenforschung    #
                  #                Kaiser Wilhelm Platz 1               #
                  #                 D-45470 Muelheim/Ruhr               #
                  #                      Germany                        #
                  #                                                     #
                  #                  All rights reserved                #
                  #                        -***-                        #
                  #######################################################



                         Program Version 5.0.4 -  RELEASE  -

 With contributions from (in alphabetic order):
   Daniel Aravena         : Magnetic Suceptibility
   Michael Atanasov       : Ab Initio Ligand Field Theory (pilot matlab implementation)
   Alexander A. Auer      : GIAO ZORA, VPT2 properties, NMR spectrum
   Ute Becker             : Parallelization
   Giovanni Bistoni       : ED, misc. LED, open-shell LED, HFLD
   Martin Brehm           : Molecular dynamics
   Dmytro Bykov           : SCF Hessian
   Vijay G. Chilkuri      : MRCI spin determinant printing, contributions to CSF-ICE
   Dipayan Datta          : RHF DLPNO-CCSD density
   Achintya Kumar Dutta   : EOM-CC, STEOM-CC
   Dmitry Ganyushin       : Spin-Orbit,Spin-Spin,Magnetic field MRCI
   Miquel Garcia          : C-PCM and meta-GGA Hessian, CC/C-PCM, Gaussian charge scheme
   Yang Guo               : DLPNO-NEVPT2, F12-NEVPT2, CIM, IAO-localization
   Andreas Hansen         : Spin unrestricted coupled pair/coupled cluster methods
   Benjamin Helmich-Paris : MC-RPA, TRAH-SCF, COSX integrals
   Lee Huntington         : MR-EOM, pCC
   Robert Izsak           : Overlap fitted RIJCOSX, COSX-SCS-MP3, EOM
   Marcus Kettner         : VPT2
   Christian Kollmar      : KDIIS, OOCD, Brueckner-CCSD(T), CCSD density, CASPT2, CASPT2-K
   Simone Kossmann        : Meta GGA functionals, TD-DFT gradient, OOMP2, MP2 Hessian
   Martin Krupicka        : Initial AUTO-CI
   Lucas Lang             : DCDCAS
   Marvin Lechner         : AUTO-CI (C++ implementation), FIC-MRCC
   Dagmar Lenk            : GEPOL surface, SMD
   Dimitrios Liakos       : Extrapolation schemes; Compound Job, initial MDCI parallelization
   Dimitrios Manganas     : Further ROCIS development; embedding schemes
   Dimitrios Pantazis     : SARC Basis sets
   Anastasios Papadopoulos: AUTO-CI, single reference methods and gradients
   Taras Petrenko         : DFT Hessian,TD-DFT gradient, ASA, ECA, R-Raman, ABS, FL, XAS/XES, NRVS
   Peter Pinski           : DLPNO-MP2, DLPNO-MP2 Gradient
   Christoph Reimann      : Effective Core Potentials
   Marius Retegan         : Local ZFS, SOC
   Christoph Riplinger    : Optimizer, TS searches, QM/MM, DLPNO-CCSD(T), (RO)-DLPNO pert. Triples
   Tobias Risthaus        : Range-separated hybrids, TD-DFT gradient, RPA, STAB
   Michael Roemelt        : Original ROCIS implementation
   Masaaki Saitow         : Open-shell DLPNO-CCSD energy and density
   Barbara Sandhoefer     : DKH picture change effects
   Avijit Sen             : IP-ROCIS
   Kantharuban Sivalingam : CASSCF convergence, NEVPT2, FIC-MRCI
   Bernardo de Souza      : ESD, SOC TD-DFT
   Georgi Stoychev        : AutoAux, RI-MP2 NMR, DLPNO-MP2 response
   Willem Van den Heuvel  : Paramagnetic NMR
   Boris Wezisla          : Elementary symmetry handling
   Frank Wennmohs         : Technical directorship


 We gratefully acknowledge several colleagues who have allowed us to
 interface, adapt or use parts of their codes:
   Stefan Grimme, W. Hujo, H. Kruse, P. Pracht,  : VdW corrections, initial TS optimization,
                  C. Bannwarth, S. Ehlert          DFT functionals, gCP, sTDA/sTD-DF
   Ed Valeev, F. Pavosevic, A. Kumar             : LibInt (2-el integral package), F12 methods
   Garnet Chan, S. Sharma, J. Yang, R. Olivares  : DMRG
   Ulf Ekstrom                                   : XCFun DFT Library
   Mihaly Kallay                                 : mrcc  (arbitrary order and MRCC methods)
   Jiri Pittner, Ondrej Demel                    : Mk-CCSD
   Frank Weinhold                                : gennbo (NPA and NBO analysis)
   Christopher J. Cramer and Donald G. Truhlar   : smd solvation model
   Lars Goerigk                                  : TD-DFT with DH, B97 family of functionals
   V. Asgeirsson, H. Jonsson                     : NEB implementation
   FAccTs GmbH                                   : IRC, NEB, NEB-TS, DLPNO-Multilevel, CI-OPT
                                                   MM, QMMM, 2- and 3-layer-ONIOM, Crystal-QMMM,
                                                   LR-CPCM, SF, NACMEs, symmetry and pop. for TD-DFT,
                                                   nearIR, NL-DFT gradient (VV10), updates on ESD,
                                                   ML-optimized integration grids
   S Lehtola, MJT Oliveira, MAL Marques          : LibXC Library
   Liviu Ungur et al                             : ANISO software


 Your calculation uses the libint2 library for the computation of 2-el integrals
 For citations please refer to: http://libint.valeyev.net

 Your ORCA version has been built with support for libXC version: 5.1.0
 For citations please refer to: https://tddft.org/programs/libxc/

 This ORCA versions uses:
   CBLAS   interface :  Fast vector & matrix operations
   LAPACKE interface :  Fast linear algebra routines
   Shared memory     :  Shared parallel matrices


Your calculation utilizes the geometrical counterpoise correction gCP
Please cite in your paper:
H.Kruse, S. Grimme J.Chem.Phys., 136, (2012), 154101 
   

Your calculation utilizes the atom-pairwise dispersion correction
with the Becke-Johnson damping scheme (D3BJ)
Cite in your paper:
S.Grimme, S.Ehrlich, L.Goerigk, J Comput Chem, (2011), 32, 1456–1465 
S.Grimme, J.Antony, S.Ehrlich and H.Krieg, J.Chem.Phys., 132, (2010), 154104 
   

================================================================================

----- Orbital basis set information -----
Your calculation utilizes the basis: MINIX,
   a combination of small basis sets by S. Grimme (see manual for definitions).

================================================================================
                                        WARNINGS
                       Please study these warnings very carefully!
================================================================================


INFO   : the flag for use of the SHARK integral package has been found!

================================================================================
                                       INPUT FILE
================================================================================
NAME = GS2_vib.inp
|  1> !HF-3c FREQ
|  2> * XYZ 0 1
|  3> Cl          0.19006056    0.25790492    2.58655500
|  4>  C         -0.60739791   -0.27595767    1.12806237
|  5>  C          0.00986803   -0.05793149   -0.10714141
|  6>  N          1.26860893    0.58631849   -0.17639968
|  7>  C          1.45531058    1.94713569   -0.31216982
|  8>  C          0.28391844    2.90060925   -0.39287040
|  9>  C          2.80808997    2.11887550   -0.33712000
| 10>  C          3.61854863    3.43253303   -0.45444253
| 11>  F          4.77890301    3.23827910   -1.11125314
| 12>  F          2.92746305    4.38690281   -1.12220204
| 13>  F          3.92564058    3.95483565    0.75718403
| 14>  N          3.45737505    0.89820355   -0.21549778
| 15>  C          2.52801895   -0.00761308   -0.12178768
| 16>  C          2.73968101   -1.45788705    0.02164065
| 17>  C          1.91514337   -2.53261447    0.10869918
| 18>  C          2.76767468   -3.69721103    0.23622428
| 19>  C          4.03652716   -3.22453952    0.21507351
| 20> Cl          5.56615162   -4.02243376    0.32038456
| 21>  O          4.03657627   -1.87308073    0.08594232
| 22>  C         -0.63055354   -0.49008539   -1.27219367
| 23> Cl          0.13869676   -0.22584830   -2.81715298
| 24>  C         -1.86382222   -1.13281703   -1.20628095
| 25>  C         -2.45968580   -1.34311068    0.03131999
| 26>  C         -1.84042990   -0.91849113    1.20055389
| 27>  H         -0.33091539    2.81950068    0.50235403
| 28>  H          0.64204019    3.92254329   -0.48303378
| 29>  H         -0.33438867    2.66910553   -1.25899291
| 30>  H          0.84056932   -2.54234576    0.08837460
| 31>  H          2.45519018   -4.72452545    0.32833177
| 32>  H         -2.34560275   -1.46376789   -2.11752987
| 33>  H         -3.41861939   -1.84421420    0.08525985
| 34>  H         -2.30403423   -1.08226860    2.16506410
| 35> **                         ****END OF INPUT****
================================================================================

                       ****************************
                       * Single Point Calculation *
                       ****************************

---------------------------------
CARTESIAN COORDINATES (ANGSTROEM)
---------------------------------
  Cl     0.190061    0.257905    2.586555
  C     -0.607398   -0.275958    1.128062
  C      0.009868   -0.057931   -0.107141
  N      1.268609    0.586318   -0.176400
  C      1.455311    1.947136   -0.312170
  C      0.283918    2.900609   -0.392870
  C      2.808090    2.118876   -0.337120
  C      3.618549    3.432533   -0.454443
  F      4.778903    3.238279   -1.111253
  F      2.927463    4.386903   -1.122202
  F      3.925641    3.954836    0.757184
  N      3.457375    0.898204   -0.215498
  C      2.528019   -0.007613   -0.121788
  C      2.739681   -1.457887    0.021641
  C      1.915143   -2.532614    0.108699
  C      2.767675   -3.697211    0.236224
  C      4.036527   -3.224540    0.215074
  Cl     5.566152   -4.022434    0.320385
  O      4.036576   -1.873081    0.085942
  C     -0.630554   -0.490085   -1.272194
  Cl     0.138697   -0.225848   -2.817153
  C     -1.863822   -1.132817   -1.206281
  C     -2.459686   -1.343111    0.031320
  C     -1.840430   -0.918491    1.200554
  H     -0.330915    2.819501    0.502354
  H      0.642040    3.922543   -0.483034
  H     -0.334389    2.669106   -1.258993
  H      0.840569   -2.542346    0.088375
  H      2.455190   -4.724525    0.328332
  H     -2.345603   -1.463768   -2.117530
  H     -3.418619   -1.844214    0.085260
  H     -2.304034   -1.082269    2.165064

----------------------------
CARTESIAN COORDINATES (A.U.)
----------------------------
  NO LB      ZA    FRAG     MASS         X           Y           Z
   0 Cl   17.0000    0    35.453    0.359162    0.487370    4.887881
   1 C     6.0000    0    12.011   -1.147816   -0.521484    2.131729
   2 C     6.0000    0    12.011    0.018648   -0.109475   -0.202468
   3 N     7.0000    0    14.007    2.397323    1.107981   -0.333347
   4 C     6.0000    0    12.011    2.750138    3.679553   -0.589915
   5 C     6.0000    0    12.011    0.536528    5.481357   -0.742417
   6 C     6.0000    0    12.011    5.306521    4.004094   -0.637064
   7 C     6.0000    0    12.011    6.838066    6.486547   -0.858772
   8 F     9.0000    0    18.998    9.030818    6.119461   -2.099964
   9 F     9.0000    0    18.998    5.532103    8.290045   -2.120655
  10 F     9.0000    0    18.998    7.418386    7.473556    1.430870
  11 N     7.0000    0    14.007    6.533492    1.697359   -0.407232
  12 C     6.0000    0    12.011    4.777263   -0.014387   -0.230145
  13 C     6.0000    0    12.011    5.177247   -2.755007    0.040895
  14 C     6.0000    0    12.011    3.619096   -4.785948    0.205412
  15 C     6.0000    0    12.011    5.230147   -6.986716    0.446399
  16 C     6.0000    0    12.011    7.627931   -6.093497    0.406430
  17 Cl   17.0000    0    35.453   10.518502   -7.601298    0.605439
  18 O     8.0000    0    15.999    7.628024   -3.539610    0.162407
  19 C     6.0000    0    12.011   -1.191574   -0.926127   -2.404098
  20 Cl   17.0000    0    35.453    0.262099   -0.426791   -5.323648
  21 C     6.0000    0    12.011   -3.522114   -2.140714   -2.279541
  22 C     6.0000    0    12.011   -4.648133   -2.538111    0.059186
  23 C     6.0000    0    12.011   -3.477908   -1.735697    2.268718
  24 H     1.0000    0     1.008   -0.625339    5.328084    0.949312
  25 H     1.0000    0     1.008    1.213280    7.412533   -0.912802
  26 H     1.0000    0     1.008   -0.631903    5.043878   -2.379152
  27 H     1.0000    0     1.008    1.588446   -4.804337    0.167004
  28 H     1.0000    0     1.008    4.639637   -8.928059    0.620457
  29 H     1.0000    0     1.008   -4.432547   -2.766120   -4.001552
  30 H     1.0000    0     1.008   -6.460254   -3.485060    0.161118
  31 H     1.0000    0     1.008   -4.353994   -2.045191    4.091378

--------------------------------
INTERNAL COORDINATES (ANGSTROEM)
--------------------------------
 Cl     0   0   0     0.000000000000     0.00000000     0.00000000
 C      1   0   0     1.745895193916     0.00000000     0.00000000
 C      2   1   0     1.397956020043   119.25875151     0.00000000
 N      3   2   1     1.415727162283   120.44987655     0.10869577
 C      4   3   2     1.380258848493   125.01110381   269.21738525
 C      5   4   3     1.512542217224   121.46585407     0.39273225
 C      5   4   3     1.363865518235   105.07678817   180.09345736
 C      7   5   4     1.547999974722   128.86899320   180.82543878
 F      8   7   5     1.347426084768   111.43626798   211.85330145
 F      8   7   5     1.354372075560   111.60481618   332.04639436
 F      8   7   5     1.354675021365   112.21519644    91.57176813
 N      7   5   4     1.387949238634   110.58833315   359.79652252
 C     12   7   5     1.301148765758   106.52560422     0.19196343
 C     13  12   7     1.472639501558   126.15333909   179.88291259
 C     14  13  12     1.357380025904   134.32116004   181.35307600
 C     15  14  13     1.448915951056   106.53647827   179.95794018
 C     16  15  14     1.354198038486   105.62773877     0.00000000
 Cl    17  16  15     1.728431839590   131.84554721   179.99915067
 O     17  16  15     1.357613983322   110.42485640     0.00000000
 C      3   2   1     1.397942612963   119.07043578   179.83662078
 Cl    20   3   2     1.745985834232   119.26350438   180.23276776
 C     20   3   2     1.392264373165   120.60098769   359.79146490
 C     22  20   3     1.389580120716   119.46333691     0.05539693
 C     23  22  20     1.389563796605   120.80170434     0.08157338
 H      6   5   4     1.089048216889   110.26841316    59.05190476
 H      6   5   4     1.086613917188   110.00131001   179.20644552
 H      6   5   4     1.089066507142   110.37237542   299.18082405
 H     15  14  13     1.074810297444   127.82633468     0.00000000
 H     16  15  14     1.077731538925   127.09149793   180.01005521
 H     22  20   3     1.082596667750   119.70127427   180.16097997
 H     23  22  20     1.083313378614   119.59880758   180.08420993
 H     24  23  22     1.082604258106   120.83613129   180.01610561

---------------------------
INTERNAL COORDINATES (A.U.)
---------------------------
 Cl     0   0   0     0.000000000000     0.00000000     0.00000000
 C      1   0   0     3.299263775031     0.00000000     0.00000000
 C      2   1   0     2.641754025149   119.25875151     0.00000000
 N      3   2   1     2.675336617069   120.44987655     0.10869577
 C      4   3   2     2.608311217574   125.01110381   269.21738525
 C      5   4   3     2.858290556548   121.46585407     0.39273225
 C      5   4   3     2.577332312962   105.07678817   180.09345736
 C      7   5   4     2.925296007542   128.86899320   180.82543878
 F      8   7   5     2.546266285914   111.43626798   211.85330145
 F      8   7   5     2.559392306239   111.60481618   332.04639436
 F      8   7   5     2.559964790844   112.21519644    91.57176813
 N      7   5   4     2.622843948803   110.58833315   359.79652252
 C     12   7   5     2.458814826772   106.52560422     0.19196343
 C     13  12   7     2.782885351939   126.15333909   179.88291259
 C     14  13  12     2.565076508613   134.32116004   181.35307600
 C     15  14  13     2.738054338566   106.53647827   179.95794018
 C     16  15  14     2.559063423832   105.62773877     0.00000000
 Cl    17  16  15     3.266262817974   131.84554721   179.99915067
 O     17  16  15     2.565518624060   110.42485640     0.00000000
 C      3   2   1     2.641728689438   119.07043578   179.83662078
 Cl    20   3   2     3.299435060404   119.26350438   180.23276776
 C     20   3   2     2.630998371297   120.60098769   359.79146490
 C     22  20   3     2.625925869295   119.46333691     0.05539693
 C     23  22  20     2.625895021196   120.80170434     0.08157338
 H      6   5   4     2.058002876555   110.26841316    59.05190476
 H      6   5   4     2.053402716793   110.00131001   179.20644552
 H      6   5   4     2.058037440125   110.37237542   299.18082405
 H     15  14  13     2.031097108087   127.82633468     0.00000000
 H     16  15  14     2.036617454458   127.09149793   180.01005521
 H     22  20   3     2.045811215543   119.70127427   180.16097997
 H     23  22  20     2.047165602793   119.59880758   180.08420993
 H     24  23  22     2.045825559237   120.83613129   180.01610561

---------------------
BASIS SET INFORMATION
---------------------
There are 6 groups of distinct atoms

 Group   1 Type Cl  : 9s6p1d contracted to 3s2p1d pattern {333/33/1}
 Group   2 Type C   : 6s3p contracted to 2s1p pattern {33/3}
 Group   3 Type N   : 6s3p contracted to 2s1p pattern {33/3}
 Group   4 Type F   : 6s3p contracted to 2s1p pattern {33/3}
 Group   5 Type O   : 6s3p contracted to 2s1p pattern {33/3}
 Group   6 Type H   : 3s contracted to 1s pattern {3}

Atom   0Cl   basis set group =>   1
Atom   1C    basis set group =>   2
Atom   2C    basis set group =>   2
Atom   3N    basis set group =>   3
Atom   4C    basis set group =>   2
Atom   5C    basis set group =>   2
Atom   6C    basis set group =>   2
Atom   7C    basis set group =>   2
Atom   8F    basis set group =>   4
Atom   9F    basis set group =>   4
Atom  10F    basis set group =>   4
Atom  11N    basis set group =>   3
Atom  12C    basis set group =>   2
Atom  13C    basis set group =>   2
Atom  14C    basis set group =>   2
Atom  15C    basis set group =>   2
Atom  16C    basis set group =>   2
Atom  17Cl   basis set group =>   1
Atom  18O    basis set group =>   5
Atom  19C    basis set group =>   2
Atom  20Cl   basis set group =>   1
Atom  21C    basis set group =>   2
Atom  22C    basis set group =>   2
Atom  23C    basis set group =>   2
Atom  24H    basis set group =>   6
Atom  25H    basis set group =>   6
Atom  26H    basis set group =>   6
Atom  27H    basis set group =>   6
Atom  28H    basis set group =>   6
Atom  29H    basis set group =>   6
Atom  30H    basis set group =>   6
Atom  31H    basis set group =>   6
------------------------------------------------------------------------------
                           ORCA GTO INTEGRAL CALCULATION
------------------------------------------------------------------------------
------------------------------------------------------------------------------
                   ___                                                        
                  /   \      - P O W E R E D   B Y -                         
                 /     \                                                     
                 |  |  |   _    _      __       _____    __    __             
                 |  |  |  | |  | |    /  \     |  _  \  |  |  /  |          
                  \  \/   | |  | |   /    \    | | | |  |  | /  /          
                 / \  \   | |__| |  /  /\  \   | |_| |  |  |/  /          
                |  |  |   |  __  | /  /__\  \  |    /   |      \           
                |  |  |   | |  | | |   __   |  |    \   |  |\   \          
                \     /   | |  | | |  |  |  |  | |\  \  |  | \   \       
                 \___/    |_|  |_| |__|  |__|  |_| \__\ |__|  \__/        
                                                                              
                      - O R C A' S   B I G   F R I E N D -                    
                                      &                                       
                       - I N T E G R A L  F E E D E R -                       
                                                                              
 v1 FN, 2020, v2 2021                                                         
------------------------------------------------------------------------------


Reading SHARK input file GS2_vib.SHARKINP.tmp ... ok
----------------------
SHARK INTEGRAL PACKAGE
----------------------

Number of atoms                             ...     32
Number of basis functions                   ...    155
Number of shells                            ...     89
Maximum angular momentum                    ...      2
Integral batch strategy                     ... SHARK/LIBINT Hybrid
RI-J (if used) integral strategy            ... SPLIT-RIJ (Revised 2003 algorithm where possible)
Printlevel                                  ...      1
Contraction scheme used                     ... SEGMENTED contraction
Coulomb Range Separation                    ... NOT USED
Exchange Range Separation                   ... NOT USED
Finite Nucleus Model                        ... NOT USED
Auxiliary Coulomb fitting basis             ... NOT available
Auxiliary J/K fitting basis                 ... NOT available
Auxiliary Correlation fitting basis         ... NOT available
Auxiliary 'external' fitting basis          ... NOT available
Integral threshold                          ...     1.000000e-10
Primitive cut-off                           ...     1.000000e-11
Primitive pair pre-selection threshold      ...     1.000000e-11

Calculating pre-screening integrals         ... done (  0.1 sec) Dimension = 89
Organizing shell pair data                  ... done (  0.1 sec)
Shell pair information
Total number of shell pairs                 ...      4005
Shell pairs after pre-screening             ...      2879
Total number of primitive shell pairs       ...     34449
Primitive shell pairs kept                  ...     14519
          la=0 lb=0:   1149 shell pairs
          la=1 lb=0:   1237 shell pairs
          la=1 lb=1:    334 shell pairs
          la=2 lb=0:     99 shell pairs
          la=2 lb=1:     57 shell pairs
          la=2 lb=2:      3 shell pairs

Calculating one electron integrals          ... done (  0.0 sec)
Calculating Nuclear repulsion               ... done (  0.0 sec) ENN=   2569.095731048164 Eh
Calculating 4-index integrals               ... 
    -> SHARK/Ints2Disk: Thresh =     1.000000e-10 TCut=    1.000000e-11 
    -> calling libint FockFlag=2 Lmax_loc=2
    -> L=0 1 2 2:     0.020 sec done=      3672 (=100.0%) skipped=         0 
    -> L=0 2 2 2:     0.002 sec done=       288 (=100.0%) skipped=         0 
    -> L=1 1 1 2:     0.188 sec done=     15122 (=100.0%) skipped=         0 
    -> L=1 1 2 2:     0.016 sec done=       975 (=100.0%) skipped=         0 
    -> L=1 2 1 2:     0.019 sec done=      1245 (=100.0%) skipped=         0 
    -> L=1 2 2 2:     0.003 sec done=       165 (=100.0%) skipped=         0 
    -> L=2 2 2 2:     0.000 sec done=         6 (=100.0%) skipped=         0 
    ->Total LIBINT loop time =    0.249 sec
    -> L=0 0 0 0:     0.311 sec done=    454447 (=100.0%) skipped=         0 
    -> L=1 0 0 0:     1.673 sec done=   1019092 (=100.0%) skipped=         0 
    -> L=1 0 1 0:     1.488 sec done=    569132 (=100.0%) skipped=         0 
    -> L=1 1 0 0:     0.663 sec done=    293701 (=100.0%) skipped=         0 
    -> L=1 1 1 0:     2.360 sec done=    324929 (=100.0%) skipped=         0 
    -> L=1 1 1 1:     0.941 sec done=     45804 (=100.0%) skipped=         0 
    -> L=2 0 0 0:     0.067 sec done=     72984 (=100.0%) skipped=         0 
    -> L=2 0 1 0:     0.221 sec done=     81778 (=100.0%) skipped=         0 
    -> L=2 0 1 1:     0.185 sec done=     23659 (=100.0%) skipped=         0 
    -> L=2 0 2 0:     0.008 sec done=      2937 (=100.0%) skipped=         0 
    -> L=2 1 0 0:     0.144 sec done=     47634 (=100.0%) skipped=         0 
    -> L=2 1 1 0:     0.358 sec done=     53190 (=100.0%) skipped=         0 
    -> L=2 1 2 0:     0.029 sec done=      3852 (=100.0%) skipped=         0 
    -> L=2 2 0 0:     0.010 sec done=      3441 (=100.0%) skipped=         0 
    ->Total SHARK integral loop time =    8.461 sec
    -> Total Integral generation matrix time =    8.747 sec
    -> Number of small integrals   =   7020836
    -> Number of medium integrals  =   9257251
    -> Number of large integrals   =   9071831
    -> Number of MB stored         =       214 MB


SHARK setup successfully completed in   9.2 seconds

Maximum memory used throughout the entire GTOINT-calculation: 48.8 MB
-------------------------------------------------------------------------------
                                 ORCA SCF
-------------------------------------------------------------------------------

------------
SCF SETTINGS
------------
Hamiltonian:
 Ab initio Hamiltonian  Method          .... Hartree-Fock(GTOs)


General Settings:
 Integral files         IntName         .... GS2_vib
 Hartree-Fock type      HFTyp           .... RHF
 Total Charge           Charge          ....    0
 Multiplicity           Mult            ....    1
 Number of Electrons    NEL             ....  198
 Basis Dimension        Dim             ....  155
 Nuclear Repulsion      ENuc            ....   2569.0957310482 Eh

Convergence Acceleration:
 DIIS                   CNVDIIS         .... on
   Start iteration      DIISMaxIt       ....    12
   Startup error        DIISStart       ....  0.200000
   # of expansion vecs  DIISMaxEq       ....     5
   Bias factor          DIISBfac        ....   1.050
   Max. coefficient     DIISMaxC        ....  10.000
 Trust-Rad. Augm. Hess. CNVTRAH         .... auto
   Auto Start mean grad. ratio tolernc. ....  1.125000
   Auto Start start iteration           ....    20
   Auto Start num. interpolation iter.  ....    10
   Max. Number of Micro iterations      ....    16
   Max. Number of Macro iterations      .... Maxiter - #DIIS iter
   Number of Davidson start vectors     ....     2
   Converg. threshold I  (grad. norm)   ....   5.000e-05
   Converg. threshold II (energy diff.) ....   1.000e-06
   Grad. Scal. Fac. for Micro threshold ....   0.100
   Minimum threshold for Micro iter.    ....   0.010
   NR start threshold (gradient norm)   ....   0.001
   Initial trust radius                 ....   0.400
   Minimum AH scaling param. (alpha)    ....   1.000
   Maximum AH scaling param. (alpha)    .... 1000.000
   Orbital update algorithm             .... Taylor
   White noise on init. David. guess    .... on
   Maximum white noise                  ....   0.010
   Quad. conv. algorithm                .... NR
 SOSCF                  CNVSOSCF        .... on
   Start iteration      SOSCFMaxIt      ....   150
   Startup grad/error   SOSCFStart      ....  0.003300
 Level Shifting         CNVShift        .... on
   Level shift para.    LevelShift      ....    0.2500
   Turn off err/grad.   ShiftErr        ....    0.0010
 Zerner damping         CNVZerner       .... off
 Static damping         CNVDamp         .... on
   Fraction old density DampFac         ....    0.7000
   Max. Damping (<1)    DampMax         ....    0.9800
   Min. Damping (>=0)   DampMin         ....    0.0000
   Turn off err/grad.   DampErr         ....    0.1000
 Fernandez-Rico         CNVRico         .... off

SCF Procedure:
 Maximum # iterations   MaxIter         ....   125
 SCF integral mode      SCFMode         .... Conventional
 Integral Threshold     Thresh          ....  1.000e-10 Eh
 Primitive CutOff       TCut            ....  1.000e-11 Eh
 Integral Buffer length BufferLength    .... 1048576
 Integral index format  IndFormat       ....     0
 Integral value format  ValFormat       ....     0
 Integral Storage       Thresh          ....  1.000e-10 Eh

Convergence Tolerance:
 Convergence Check Mode ConvCheckMode   .... Total+1el-Energy
 Convergence forced     ConvForced      .... 0
 Energy Change          TolE            ....  1.000e-06 Eh
 1-El. energy change                    ....  1.000e-03 Eh
 Orbital Gradient       TolG            ....  5.000e-05
 Orbital Rotation angle TolX            ....  5.000e-05
 DIIS Error             TolErr          ....  1.000e-06


Diagonalization of the overlap matrix:
Smallest eigenvalue                        ... 1.700e-01
Time for diagonalization                   ...    0.009 sec
Threshold for overlap eigenvalues          ... 1.000e-08
Number of eigenvalues below threshold      ... 0
Time for construction of square roots      ...    0.009 sec
Total time needed                          ...    0.019 sec

--------------------------------
INITIAL GUESS: MINIMAL BASIS EHT
--------------------------------
The minimal basis has 140 functions
EHT matrix was diagonalized
Basis set overlap was calculated now projecting the orbitals
Using GuessMode=FMatrix for the initial guess
C*T matrix was formed
Effective Fockian was calculated
Effective Fockian was diagonalized
Initial density was built
                      ------------------
                      INITIAL GUESS DONE
                      ------------------

 InCore treatment chosen:
   Memory dedicated               ...    1024 MB
   Memory needed                  ...    214 MB
   Number of tiny    integrals    ... 7020836
   Number of small   integrals    ... 9257251
   Number of regular integrals    ... 9071831

--------------
SCF ITERATIONS
--------------
ITER       Energy         Delta-E        Max-DP      RMS-DP      [F,P]     Damp
  0  -2417.5769334730   0.000000000000 0.17691334  0.00469158  0.2909027 0.7000
  1  -2418.1608959728  -0.583962499779 0.15113671  0.00388564  0.2021934 0.7000
                               ***Turning on DIIS***
  2  -2418.5611955668  -0.400299594060 0.09961933  0.00269108  0.1378850 0.7000
  3  -2417.9456085359   0.615587030920 0.05201330  0.00180847  0.1008876 0.7000
  4  -2418.2942518890  -0.348643353114 0.14546554  0.00456011  0.0715461 0.0000
  5  -2419.4839508043  -1.189698915250 0.02377110  0.00058353  0.0138310 0.0000
  6  -2419.4759311817   0.008019622586 0.01274705  0.00033411  0.0036991 0.0000
  7  -2419.4864825948  -0.010551413107 0.00911677  0.00020626  0.0046591 0.0000
                      *** Initiating the SOSCF procedure ***
                           *** Shutting down DIIS ***
                      *** Re-Reading the Fockian *** 
                      *** Removing any level shift *** 
ITER      Energy       Delta-E        Grad      Rot      Max-DP    RMS-DP
  8  -2419.50379580  -0.0173132087  0.001861  0.001861  0.003931  0.000092
  9  -2419.50721781  -0.0034220099  0.000837  0.001918  0.002330  0.000049
 10  -2419.50722877  -0.0000109590  0.000379  0.002293  0.003027  0.000067
 11  -2419.50723404  -0.0000052641  0.000118  0.000175  0.000497  0.000010
 12  -2419.50723437  -0.0000003344  0.000046  0.000064  0.000119  0.000003
                 **** Energy Check signals convergence ****
              ***Rediagonalizing the Fockian in SOSCF/NRSCF***

               *****************************************************
               *                     SUCCESS                       *
               *           SCF CONVERGED AFTER  13 CYCLES          *
               *****************************************************


----------------
TOTAL SCF ENERGY
----------------

Total Energy       :        -2419.50723444 Eh          -65838.13900 eV

Components:
Nuclear Repulsion  :         2569.09573105 Eh           69908.64893 eV
Electronic Energy  :        -4988.60296549 Eh         -135746.78792 eV
One Electron Energy:        -8449.62548546 Eh         -229925.99867 eV
Two Electron Energy:         3461.02251997 Eh           94179.21075 eV

Virial components:
Potential Energy   :        -4835.56570082 Eh         -131582.43224 eV
Kinetic Energy     :         2416.05846638 Eh           65744.29325 eV
Virial Ratio       :            2.00142744


---------------
SCF CONVERGENCE
---------------

  Last Energy change         ...   -6.8272e-08  Tolerance :   1.0000e-06
  Last MAX-Density change    ...    4.7885e-05  Tolerance :   1.0000e-05
  Last RMS-Density change    ...    1.5181e-06  Tolerance :   1.0000e-06
  Last Orbital Gradient      ...    1.0774e-05  Tolerance :   5.0000e-05
  Last Orbital Rotation      ...    2.0928e-05  Tolerance :   5.0000e-05

             **** THE GBW FILE WAS UPDATED (GS2_vib.gbw) ****
             **** DENSITY GS2_vib.scfp WAS UPDATED ****
             **** ENERGY FILE WAS UPDATED (GS2_vib.en.tmp) ****
             **** THE GBW FILE WAS UPDATED (GS2_vib.gbw) ****
             **** DENSITY GS2_vib.scfp WAS UPDATED ****
----------------
ORBITAL ENERGIES
----------------

  NO   OCC          E(Eh)            E(eV) 
   0   2.0000    -104.123965     -2833.3571 
   1   2.0000    -104.121115     -2833.2796 
   2   2.0000    -104.121000     -2833.2765 
   3   2.0000     -26.032279      -708.3743 
   4   2.0000     -26.031275      -708.3470 
   5   2.0000     -26.026449      -708.2157 
   6   2.0000     -20.473995      -557.1257 
   7   2.0000     -15.546192      -423.0334 
   8   2.0000     -15.443216      -420.2313 
   9   2.0000     -11.508651      -313.1663 
  10   2.0000     -11.325525      -308.1832 
  11   2.0000     -11.312705      -307.8344 
  12   2.0000     -11.312632      -307.8324 
  13   2.0000     -11.308524      -307.7206 
  14   2.0000     -11.296749      -307.4002 
  15   2.0000     -11.293110      -307.3011 
  16   2.0000     -11.273421      -306.7654 
  17   2.0000     -11.252602      -306.1989 
  18   2.0000     -11.250232      -306.1344 
  19   2.0000     -11.249432      -306.1126 
  20   2.0000     -11.230356      -305.5935 
  21   2.0000     -11.209042      -305.0135 
  22   2.0000     -11.206820      -304.9531 
  23   2.0000     -11.205994      -304.9306 
  24   2.0000     -10.546186      -286.9763 
  25   2.0000     -10.546050      -286.9726 
  26   2.0000     -10.545464      -286.9567 
  27   2.0000      -7.980526      -217.1611 
  28   2.0000      -7.980389      -217.1574 
  29   2.0000      -7.980220      -217.1528 
  30   2.0000      -7.975817      -217.0330 
  31   2.0000      -7.975746      -217.0311 
  32   2.0000      -7.975680      -217.0293 
  33   2.0000      -7.975608      -217.0273 
  34   2.0000      -7.975265      -217.0180 
  35   2.0000      -7.975253      -217.0177 
  36   2.0000      -1.694074       -46.0981 
  37   2.0000      -1.589085       -43.2412 
  38   2.0000      -1.584461       -43.1154 
  39   2.0000      -1.506746       -41.0007 
  40   2.0000      -1.403987       -38.2044 
  41   2.0000      -1.279924       -34.8285 
  42   2.0000      -1.215376       -33.0721 
  43   2.0000      -1.193046       -32.4644 
  44   2.0000      -1.164354       -31.6837 
  45   2.0000      -1.142095       -31.0780 
  46   2.0000      -1.130447       -30.7610 
  47   2.0000      -1.107203       -30.1285 
  48   2.0000      -1.064787       -28.9743 
  49   2.0000      -1.044540       -28.4234 
  50   2.0000      -1.027885       -27.9702 
  51   2.0000      -0.995755       -27.0959 
  52   2.0000      -0.937047       -25.4984 
  53   2.0000      -0.904475       -24.6120 
  54   2.0000      -0.875208       -23.8156 
  55   2.0000      -0.850753       -23.1502 
  56   2.0000      -0.837661       -22.7939 
  57   2.0000      -0.820658       -22.3312 
  58   2.0000      -0.786175       -21.3929 
  59   2.0000      -0.766861       -20.8674 
  60   2.0000      -0.759954       -20.6794 
  61   2.0000      -0.756157       -20.5761 
  62   2.0000      -0.746798       -20.3214 
  63   2.0000      -0.735772       -20.0214 
  64   2.0000      -0.715730       -19.4760 
  65   2.0000      -0.689282       -18.7563 
  66   2.0000      -0.684541       -18.6273 
  67   2.0000      -0.654136       -17.8000 
  68   2.0000      -0.651372       -17.7247 
  69   2.0000      -0.643604       -17.5134 
  70   2.0000      -0.637174       -17.3384 
  71   2.0000      -0.636736       -17.3265 
  72   2.0000      -0.632547       -17.2125 
  73   2.0000      -0.618554       -16.8317 
  74   2.0000      -0.610677       -16.6174 
  75   2.0000      -0.596389       -16.2286 
  76   2.0000      -0.594118       -16.1668 
  77   2.0000      -0.590890       -16.0789 
  78   2.0000      -0.585974       -15.9452 
  79   2.0000      -0.581795       -15.8314 
  80   2.0000      -0.580627       -15.7997 
  81   2.0000      -0.577460       -15.7135 
  82   2.0000      -0.571247       -15.5444 
  83   2.0000      -0.554428       -15.0868 
  84   2.0000      -0.552832       -15.0433 
  85   2.0000      -0.540419       -14.7056 
  86   2.0000      -0.525113       -14.2891 
  87   2.0000      -0.507279       -13.8038 
  88   2.0000      -0.490710       -13.3529 
  89   2.0000      -0.485680       -13.2160 
  90   2.0000      -0.478127       -13.0105 
  91   2.0000      -0.472120       -12.8470 
  92   2.0000      -0.446935       -12.1617 
  93   2.0000      -0.437055       -11.8929 
  94   2.0000      -0.427012       -11.6196 
  95   2.0000      -0.403843       -10.9891 
  96   2.0000      -0.398544       -10.8449 
  97   2.0000      -0.389190       -10.5904 
  98   2.0000      -0.319176        -8.6852 
  99   0.0000       0.101450         2.7606 
 100   0.0000       0.107996         2.9387 
 101   0.0000       0.117296         3.1918 
 102   0.0000       0.202225         5.5028 
 103   0.0000       0.208317         5.6686 
 104   0.0000       0.237870         6.4728 
 105   0.0000       0.257747         7.0136 
 106   0.0000       0.266299         7.2464 
 107   0.0000       0.326527         8.8852 
 108   0.0000       0.338538         9.2121 
 109   0.0000       0.409361        11.1393 
 110   0.0000       0.426562        11.6073 
 111   0.0000       0.456589        12.4244 
 112   0.0000       0.497940        13.5496 
 113   0.0000       0.503454        13.6997 
 114   0.0000       0.507615        13.8129 
 115   0.0000       0.522698        14.2233 
 116   0.0000       0.539462        14.6795 
 117   0.0000       0.539911        14.6917 
 118   0.0000       0.548768        14.9327 
 119   0.0000       0.603590        16.4245 
 120   0.0000       0.603863        16.4319 
 121   0.0000       0.606665        16.5082 
 122   0.0000       0.638568        17.3763 
 123   0.0000       0.667636        18.1673 
 124   0.0000       0.678917        18.4743 
 125   0.0000       0.689184        18.7536 
 126   0.0000       0.702454        19.1148 
 127   0.0000       0.722193        19.6519 
 128   0.0000       0.729124        19.8405 
 129   0.0000       0.741830        20.1862 
 130   0.0000       0.758035        20.6272 
 131   0.0000       0.797658        21.7054 
 132   0.0000       0.807972        21.9860 
 133   0.0000       0.847939        23.0736 
 134   0.0000       0.881707        23.9925 
 135   0.0000       0.916153        24.9298 
 136   0.0000       0.935843        25.4656 
 137   0.0000       0.979903        26.6645 
 138   0.0000       0.986110        26.8334 
 139   0.0000       1.006384        27.3851 
 140   0.0000       1.006680        27.3931 
 141   0.0000       1.007183        27.4068 
 142   0.0000       1.008672        27.4474 
 143   0.0000       1.011856        27.5340 
 144   0.0000       1.016345        27.6562 
 145   0.0000       1.017532        27.6884 
 146   0.0000       1.018067        27.7030 
 147   0.0000       1.025453        27.9040 
 148   0.0000       1.030297        28.0358 
 149   0.0000       1.071116        29.1466 
 150   0.0000       1.091659        29.7056 
 151   0.0000       1.101231        29.9660 
 152   0.0000       1.167305        31.7640 
 153   0.0000       1.180368        32.1195 
 154   0.0000       1.195949        32.5434 

                    ********************************
                    * MULLIKEN POPULATION ANALYSIS *
                    ********************************

-----------------------
MULLIKEN ATOMIC CHARGES
-----------------------
   0 Cl:   -0.089165
   1 C :    0.041901
   2 C :    0.109704
   3 N :   -0.278416
   4 C :    0.134533
   5 C :   -0.382430
   6 C :    0.018546
   7 C :    0.785246
   8 F :   -0.284017
   9 F :   -0.299878
  10 F :   -0.293170
  11 N :   -0.253562
  12 C :    0.217874
  13 C :    0.186222
  14 C :   -0.164478
  15 C :   -0.161791
  16 C :    0.234907
  17 Cl:   -0.073339
  18 O :   -0.349038
  19 C :    0.041658
  20 Cl:   -0.089558
  21 C :   -0.124022
  22 C :   -0.120253
  23 C :   -0.123905
  24 H :    0.153904
  25 H :    0.167369
  26 H :    0.154873
  27 H :    0.158140
  28 H :    0.167261
  29 H :    0.173814
  30 H :    0.167211
  31 H :    0.173857
Sum of atomic charges:   -0.0000000

--------------------------------
MULLIKEN REDUCED ORBITAL CHARGES
--------------------------------
  0 Cls       :     5.916469  s :     5.916469
      pz      :     3.425163  p :    11.129154
      px      :     3.815853
      py      :     3.888138
      dz2     :     0.011758  d :     0.043542
      dxz     :     0.016697
      dyz     :     0.010196
      dx2y2   :     0.002144
      dxy     :     0.002748
  1 C s       :     3.057114  s :     3.057114
      pz      :     0.890484  p :     2.900985
      px      :     0.997354
      py      :     1.013147
  2 C s       :     2.992821  s :     2.992821
      pz      :     0.985608  p :     2.897475
      px      :     0.889297
      py      :     1.022570
  3 N s       :     3.346666  s :     3.346666
      pz      :     1.628034  p :     3.931750
      px      :     1.143361
      py      :     1.160356
  4 C s       :     3.032212  s :     3.032212
      pz      :     0.980524  p :     2.833254
      px      :     1.023020
      py      :     0.829711
  5 C s       :     3.147915  s :     3.147915
      pz      :     1.126493  p :     3.234516
      px      :     1.029396
      py      :     1.078627
  6 C s       :     3.005620  s :     3.005620
      pz      :     1.184713  p :     2.975834
      px      :     0.922017
      py      :     0.869104
  7 C s       :     2.992636  s :     2.992636
      pz      :     0.647828  p :     2.222118
      px      :     0.724597
      py      :     0.849694
  8 F s       :     3.932564  s :     3.932564
      pz      :     1.829412  p :     5.351452
      px      :     1.569961
      py      :     1.952080
  9 F s       :     3.932624  s :     3.932624
      pz      :     1.831463  p :     5.367253
      px      :     1.832077
      py      :     1.703713
 10 F s       :     3.933427  s :     3.933427
      pz      :     1.553157  p :     5.359743
      px      :     1.927716
      py      :     1.878870
 11 N s       :     3.577435  s :     3.577435
      pz      :     1.091782  p :     3.676127
      px      :     1.561453
      py      :     1.022893
 12 C s       :     2.973533  s :     2.973533
      pz      :     1.079767  p :     2.808593
      px      :     0.788755
      py      :     0.940071
 13 C s       :     2.999344  s :     2.999344
      pz      :     1.080935  p :     2.814434
      px      :     0.747463
      py      :     0.986036
 14 C s       :     3.076379  s :     3.076379
      pz      :     1.060081  p :     3.088098
      px      :     1.076101
      py      :     0.951916
 15 C s       :     3.077242  s :     3.077242
      pz      :     1.064028  p :     3.084549
      px      :     0.946392
      py      :     1.074129
 16 C s       :     3.016095  s :     3.016095
      pz      :     1.093363  p :     2.748998
      px      :     0.927812
      py      :     0.727823
 17 Cls       :     5.911115  s :     5.911115
      pz      :     3.956081  p :    11.115907
      px      :     3.354279
      py      :     3.805546
      dz2     :     0.008409  d :     0.046317
      dxz     :     0.006819
      dyz     :     0.001667
      dx2y2   :     0.010464
      dxy     :     0.018958
 18 O s       :     3.761136  s :     3.761136
      pz      :     1.723015  p :     4.587903
      px      :     1.506948
      py      :     1.357939
 19 C s       :     3.057122  s :     3.057122
      pz      :     0.877619  p :     2.901219
      px      :     0.999834
      py      :     1.023766
 20 Cls       :     5.916462  s :     5.916462
      pz      :     3.357600  p :    11.129578
      px      :     3.827470
      py      :     3.944508
      dz2     :     0.016650  d :     0.043518
      dxz     :     0.017140
      dyz     :     0.006530
      dx2y2   :     0.001739
      dxy     :     0.001459
 21 C s       :     3.074723  s :     3.074723
      pz      :     1.068267  p :     3.049299
      px      :     0.985293
      py      :     0.995739
 22 C s       :     3.079221  s :     3.079221
      pz      :     0.983847  p :     3.041032
      px      :     1.063651
      py      :     0.993535
 23 C s       :     3.074730  s :     3.074730
      pz      :     1.077248  p :     3.049175
      px      :     0.983762
      py      :     0.988165
 24 H s       :     0.846096  s :     0.846096
 25 H s       :     0.832631  s :     0.832631
 26 H s       :     0.845127  s :     0.845127
 27 H s       :     0.841860  s :     0.841860
 28 H s       :     0.832739  s :     0.832739
 29 H s       :     0.826186  s :     0.826186
 30 H s       :     0.832789  s :     0.832789
 31 H s       :     0.826143  s :     0.826143


                     *******************************
                     * LOEWDIN POPULATION ANALYSIS *
                     *******************************

----------------------
LOEWDIN ATOMIC CHARGES
----------------------
   0 Cl:   -0.056017
   1 C :    0.030547
   2 C :    0.055469
   3 N :   -0.101694
   4 C :    0.094309
   5 C :   -0.246132
   6 C :   -0.055775
   7 C :    0.619056
   8 F :   -0.217285
   9 F :   -0.233611
  10 F :   -0.228276
  11 N :   -0.183411
  12 C :    0.122511
  13 C :    0.125638
  14 C :   -0.129177
  15 C :   -0.134665
  16 C :    0.154248
  17 Cl:   -0.036326
  18 O :   -0.198409
  19 C :    0.030321
  20 Cl:   -0.056363
  21 C :   -0.083221
  22 C :   -0.061878
  23 C :   -0.083098
  24 H :    0.103926
  25 H :    0.113874
  26 H :    0.104675
  27 H :    0.104276
  28 H :    0.110698
  29 H :    0.113600
  30 H :    0.108558
  31 H :    0.113632

-------------------------------
LOEWDIN REDUCED ORBITAL CHARGES
-------------------------------
  0 Cls       :     5.869074  s :     5.869074
      pz      :     3.431460  p :    11.133036
      px      :     3.816108
      py      :     3.885468
      dz2     :     0.015143  d :     0.053907
      dxz     :     0.019677
      dyz     :     0.012448
      dx2y2   :     0.002970
      dxy     :     0.003668
  1 C s       :     2.963437  s :     2.963437
      pz      :     0.951472  p :     3.006016
      px      :     1.031846
      py      :     1.022698
  2 C s       :     2.922134  s :     2.922134
      pz      :     1.040479  p :     3.022397
      px      :     0.942529
      py      :     1.039389
  3 N s       :     3.159674  s :     3.159674
      pz      :     1.613740  p :     3.942020
      px      :     1.154986
      py      :     1.173294
  4 C s       :     2.954262  s :     2.954262
      pz      :     0.992089  p :     2.951429
      px      :     1.060582
      py      :     0.898758
  5 C s       :     2.976467  s :     2.976467
      pz      :     1.120623  p :     3.269665
      px      :     1.056627
      py      :     1.092414
  6 C s       :     2.948369  s :     2.948369
      pz      :     1.182746  p :     3.107405
      px      :     0.988819
      py      :     0.935840
  7 C s       :     2.960084  s :     2.960084
      pz      :     0.727657  p :     2.420860
      px      :     0.794577
      py      :     0.898626
  8 F s       :     3.853302  s :     3.853302
      pz      :     1.830867  p :     5.363983
      px      :     1.581933
      py      :     1.951183
  9 F s       :     3.855038  s :     3.855038
      pz      :     1.832844  p :     5.378573
      px      :     1.834652
      py      :     1.711077
 10 F s       :     3.856419  s :     3.856419
      pz      :     1.565744  p :     5.371857
      px      :     1.926182
      py      :     1.879932
 11 N s       :     3.416486  s :     3.416486
      pz      :     1.096024  p :     3.766925
      px      :     1.592173
      py      :     1.078728
 12 C s       :     2.927645  s :     2.927645
      pz      :     1.084723  p :     2.949844
      px      :     0.871377
      py      :     0.993744
 13 C s       :     2.935956  s :     2.935956
      pz      :     1.083071  p :     2.938406
      px      :     0.827454
      py      :     1.027881
 14 C s       :     2.966835  s :     2.966835
      pz      :     1.063962  p :     3.162343
      px      :     1.079347
      py      :     1.019033
 15 C s       :     2.968989  s :     2.968989
      pz      :     1.069393  p :     3.165675
      px      :     1.021247
      py      :     1.075036
 16 C s       :     2.956656  s :     2.956656
      pz      :     1.095646  p :     2.889095
      px      :     0.982139
      py      :     0.811311
 17 Cls       :     5.861472  s :     5.861472
      pz      :     3.950996  p :    11.118361
      px      :     3.362994
      py      :     3.804371
      dz2     :     0.009583  d :     0.056493
      dxz     :     0.009346
      dyz     :     0.002317
      dx2y2   :     0.013204
      dxy     :     0.022043
 18 O s       :     3.594336  s :     3.594336
      pz      :     1.713441  p :     4.604072
      px      :     1.515686
      py      :     1.374945
 19 C s       :     2.963438  s :     2.963438
      pz      :     0.940073  p :     3.006241
      px      :     1.034069
      py      :     1.032099
 20 Cls       :     5.869073  s :     5.869073
      pz      :     3.364780  p :    11.133413
      px      :     3.827566
      py      :     3.941067
      dz2     :     0.020357  d :     0.053877
      dxz     :     0.020337
      dyz     :     0.008712
      dx2y2   :     0.002367
      dxy     :     0.002104
 21 C s       :     2.962063  s :     2.962063
      pz      :     1.084799  p :     3.121159
      px      :     1.028351
      py      :     1.008009
 22 C s       :     2.960540  s :     2.960540
      pz      :     1.040260  p :     3.101338
      px      :     1.065911
      py      :     0.995168
 23 C s       :     2.962068  s :     2.962068
      pz      :     1.089000  p :     3.121029
      px      :     1.027624
      py      :     1.004405
 24 H s       :     0.896074  s :     0.896074
 25 H s       :     0.886126  s :     0.886126
 26 H s       :     0.895325  s :     0.895325
 27 H s       :     0.895724  s :     0.895724
 28 H s       :     0.889302  s :     0.889302
 29 H s       :     0.886400  s :     0.886400
 30 H s       :     0.891442  s :     0.891442
 31 H s       :     0.886368  s :     0.886368


                      *****************************
                      * MAYER POPULATION ANALYSIS *
                      *****************************

  NA   - Mulliken gross atomic population
  ZA   - Total nuclear charge
  QA   - Mulliken gross atomic charge
  VA   - Mayer's total valence
  BVA  - Mayer's bonded valence
  FA   - Mayer's free valence

  ATOM       NA         ZA         QA         VA         BVA        FA
  0 Cl    17.0892    17.0000    -0.0892     1.1144     1.1144     0.0000
  1 C      5.9581     6.0000     0.0419     3.9704     3.9704    -0.0000
  2 C      5.8903     6.0000     0.1097     3.9596     3.9596    -0.0000
  3 N      7.2784     7.0000    -0.2784     3.4339     3.4339    -0.0000
  4 C      5.8655     6.0000     0.1345     3.9405     3.9405    -0.0000
  5 C      6.3824     6.0000    -0.3824     3.9224     3.9224    -0.0000
  6 C      5.9815     6.0000     0.0185     3.9391     3.9391    -0.0000
  7 C      5.2148     6.0000     0.7852     3.6758     3.6758    -0.0000
  8 F      9.2840     9.0000    -0.2840     1.0338     1.0338    -0.0000
  9 F      9.2999     9.0000    -0.2999     1.0159     1.0159    -0.0000
 10 F      9.2932     9.0000    -0.2932     1.0234     1.0234    -0.0000
 11 N      7.2536     7.0000    -0.2536     3.0401     3.0401    -0.0000
 12 C      5.7821     6.0000     0.2179     3.9325     3.9325    -0.0000
 13 C      5.8138     6.0000     0.1862     3.8779     3.8779    -0.0000
 14 C      6.1645     6.0000    -0.1645     3.9701     3.9701    -0.0000
 15 C      6.1618     6.0000    -0.1618     3.9651     3.9651    -0.0000
 16 C      5.7651     6.0000     0.2349     3.8709     3.8709    -0.0000
 17 Cl    17.0733    17.0000    -0.0733     1.1275     1.1275    -0.0000
 18 O      8.3490     8.0000    -0.3490     2.2707     2.2707    -0.0000
 19 C      5.9583     6.0000     0.0417     3.9703     3.9703    -0.0000
 20 Cl    17.0896    17.0000    -0.0896     1.1142     1.1142    -0.0000
 21 C      6.1240     6.0000    -0.1240     3.9693     3.9693    -0.0000
 22 C      6.1203     6.0000    -0.1203     3.9723     3.9723    -0.0000
 23 C      6.1239     6.0000    -0.1239     3.9693     3.9693    -0.0000
 24 H      0.8461     1.0000     0.1539     0.9763     0.9763    -0.0000
 25 H      0.8326     1.0000     0.1674     0.9720     0.9720    -0.0000
 26 H      0.8451     1.0000     0.1549     0.9760     0.9760    -0.0000
 27 H      0.8419     1.0000     0.1581     0.9750     0.9750    -0.0000
 28 H      0.8327     1.0000     0.1673     0.9720     0.9720     0.0000
 29 H      0.8262     1.0000     0.1738     0.9698     0.9698    -0.0000
 30 H      0.8328     1.0000     0.1672     0.9720     0.9720    -0.0000
 31 H      0.8261     1.0000     0.1739     0.9698     0.9698    -0.0000

  Mayer bond orders larger than 0.100000
B(  0-Cl,  1-C ) :   1.0178 B(  1-C ,  2-C ) :   1.3889 B(  1-C , 21-C ) :   0.1058 
B(  1-C , 23-C ) :   1.4200 B(  2-C ,  3-N ) :   0.9836 B(  2-C , 19-C ) :   1.3889 
B(  2-C , 22-C ) :   0.1067 B(  3-N ,  4-C ) :   1.1537 B(  3-N , 12-C ) :   1.0934 
B(  4-C ,  5-C ) :   1.0216 B(  4-C ,  6-C ) :   1.5826 B(  5-C , 24-H ) :   0.9587 
B(  5-C , 25-H ) :   0.9622 B(  5-C , 26-H ) :   0.9583 B(  6-C ,  7-C ) :   0.9463 
B(  6-C , 11-N ) :   1.2192 B(  7-C ,  8-F ) :   0.9136 B(  7-C ,  9-F ) :   0.8953 
B(  7-C , 10-F ) :   0.8976 B( 11-N , 12-C ) :   1.6208 B( 12-C , 13-C ) :   1.0444 
B( 13-C , 14-C ) :   1.6456 B( 13-C , 16-C ) :   0.1108 B( 13-C , 18-O ) :   1.0258 
B( 14-C , 15-C ) :   1.2196 B( 14-C , 27-H ) :   0.9603 B( 15-C , 16-C ) :   1.6537 
B( 15-C , 28-H ) :   0.9590 B( 16-C , 17-Cl) :   1.0254 B( 16-C , 18-O ) :   1.0439 
B( 19-C , 20-Cl) :   1.0176 B( 19-C , 21-C ) :   1.4201 B( 19-C , 23-C ) :   0.1058 
B( 21-C , 22-C ) :   1.4448 B( 21-C , 29-H ) :   0.9518 B( 22-C , 23-C ) :   1.4449 
B( 22-C , 30-H ) :   0.9530 B( 23-C , 31-H ) :   0.9517 

-------
TIMINGS
-------

Total SCF time: 0 days 0 hours 0 min 21 sec 

Total time                  ....      21.840 sec
Sum of individual times     ....      18.694 sec  ( 85.6%)

Fock matrix formation       ....      17.789 sec  ( 81.5%)
Diagonalization             ....       0.142 sec  (  0.7%)
Density matrix formation    ....       0.023 sec  (  0.1%)
Population analysis         ....       0.066 sec  (  0.3%)
Initial guess               ....       0.066 sec  (  0.3%)
Orbital Transformation      ....       0.000 sec  (  0.0%)
Orbital Orthonormalization  ....       0.000 sec  (  0.0%)
DIIS solution               ....       0.415 sec  (  1.9%)
SOSCF solution              ....       0.193 sec  (  0.9%)

Maximum memory used throughout the entire SCF-calculation: 460.2 MB


-------------------------------------------------------------------------------
                          DFT DISPERSION CORRECTION                            
                                                                               
                              DFTD3 V3.1  Rev 1                                
                          USING Becke-Johnson damping                          
-------------------------------------------------------------------------------
Hartree-Fock is recognized
Active option DFTDOPT                   ...         4   

molecular C6(AA) [au] = 17904.791753 


            DFT-D V3
 parameters
 using HF/MINIX parameters
 s6 scaling factor         :     1.0000 
 a1 scaling factor         :     0.4171 
 s8 scaling factor         :     0.8777 
 a2 scaling factor         :     2.9149 
 ad hoc parameters k1-k3   :    16.0000     1.3333    -4.0000 

 Edisp/kcal,au: -122.313515211475  -0.194918972892 
 E6   /kcal   : -66.501748409 
 E8   /kcal   : -55.811766803 
 % E8         :  45.630089779 

-------------------------   ----------------
Dispersion correction           -0.194918973
-------------------------   ----------------

------------------   -----------------
gCP+bas correction        -0.242901283
------------------   -----------------
----------------------------   ----------------
Total correction to HF/MINIX       -0.437820256
----------------------------   ----------------


-------------------------   --------------------
FINAL SINGLE POINT ENERGY     -2419.945054695207
-------------------------   --------------------


                            ***************************************
                            *     ORCA property calculations      *
                            ***************************************

                                    ---------------------
                                    Active property flags
                                    ---------------------
   (+) Dipole Moment


------------------------------------------------------------------------------
                       ORCA ELECTRIC PROPERTIES CALCULATION
------------------------------------------------------------------------------

Dipole Moment Calculation                       ... on
Quadrupole Moment Calculation                   ... off
Polarizability Calculation                      ... off
GBWName                                         ... GS2_vib.gbw
Electron density                                ... GS2_vib.scfp
The origin for moment calculation is the CENTER OF MASS  = ( 3.502506,  0.048568 -0.214178)

-------------
DIPOLE MOMENT
-------------
                                X             Y             Z
Electronic contribution:     20.72017       6.12165      -0.55309
Nuclear contribution   :    -24.44692      -7.51864       0.68108
                        -----------------------------------------
Total Dipole Moment    :     -3.72675      -1.39699       0.12799
                        -----------------------------------------
Magnitude (a.u.)       :      3.98204
Magnitude (Debye)      :     10.12153



--------------------
Rotational spectrum 
--------------------
 
Rotational constants in cm-1:     0.006284     0.005533     0.003801 
Rotational constants in MHz :   188.388093   165.875072   113.958802 

 Dipole components along the rotational axes: 
x,y,z [a.u.] :    -0.546864    -3.944305     0.004352 
x,y,z [Debye]:    -1.390017   -10.025627     0.011062 

 

-------------------------------------------------------------------------------
                               ORCA SCF HESSIAN
-------------------------------------------------------------------------------



WARNING: Conventional/SemiDirect RunMode not available for Analytical Frequencies
  ===> : Switching RunMode to Direct


                   --------- SHARK INITIALIZATION DONE ---------

Hessian of the Hartree-Fock SCF energy:
Hartree-Fock type                                ... RHF
Number of operators                              ...    1
Number of atoms                                  ...   32
Basis set dimensions                             ...  155
Integral neglect threshold                       ... 1.0e-10
Integral primitive cutoff                        ... 1.0e-11

Nuclear repulsion Hessian  (SHARK)               ... done   (      0.0 sec)

----------------------------------------------
Forming right-hand sides of CP-SCF equations     ...
----------------------------------------------
One electron integral derivatives  (SHARK)       ... done   (      0.8 sec)
Transforming the overlap derivative matrices     ... done   (      0.3 sec)
Making the Q(x) pseudodensities                  ... done   (      0.3 sec)
Adding the E*S(x)*S(y) terms to the Hessian      ... done   (      0.5 sec)
Calculating energy weighted overlap derivatives  ... done   (      4.5 sec)
Two electron integral derivatives (SHARK)        ... done   (    117.6 sec)
tr(F(y)Q(x)) contribution to the Hessian         ... done   (      0.2 sec)
Response fock operator R(S(x)) (SHARK)           ... done   (    243.7 sec)
tr(F(y)S(x)) contribution to the Hessian         ... done   (      0.1 sec)
Transforming and finalizing RHSs                 ... done   (      0.6 sec)

----------------------------------------------
Solving the CP-SCF equations                     ...
----------------------------------------------
     CP-SCF ITERATION   0:   1.1775e-01 ( 279.9 sec   0/ 96 done)
     CP-SCF ITERATION   1:   4.7264e-02 ( 239.0 sec   1/ 96 done)
     CP-SCF ITERATION   2:   1.5781e-02 ( 250.1 sec  12/ 96 done)
     CP-SCF ITERATION   3:   4.3846e-03 ( 208.7 sec  40/ 96 done)
     CP-SCF ITERATION   4:   1.7906e-03 ( 120.4 sec  75/ 96 done)
     CP-SCF ITERATION   5:   7.2811e-04 (  30.0 sec  96/ 96 done)
                    *** THE CP-SCF HAS CONVERGED ***

                                                 ... done   (   1128.4 sec)
Forming perturbed density Hessian contributions  ... done   (      0.1 sec)
2nd integral derivative contribs (SHARK)         ... done   (    157.3 sec)
Dispersion correction in the Hessian             ... done   (     32.0 sec)
gCP correction in the Hessian                    ... done   (      0.4 sec)
Dipole derivatives                               ... (center of mass:  3.502506,  0.048568 -0.214178)done   (      0.2 sec)

Total SCF Hessian time: 0 days 0 hours 28 min 7 sec 

Writing the Hessian file to the disk             ... done


Maximum memory used throughout the entire SCFHESS-calculation: 150.3 MB

-----------------------
VIBRATIONAL FREQUENCIES
-----------------------

Scaling factor for frequencies =  1.000000000  (already applied!)

   0:         0.00 cm**-1
   1:         0.00 cm**-1
   2:         0.00 cm**-1
   3:         0.00 cm**-1
   4:         0.00 cm**-1
   5:         0.00 cm**-1
   6:         5.38 cm**-1
   7:        20.41 cm**-1
   8:        32.36 cm**-1
   9:        44.98 cm**-1
  10:        53.35 cm**-1
  11:        66.19 cm**-1
  12:        79.67 cm**-1
  13:        96.99 cm**-1
  14:       111.08 cm**-1
  15:       128.63 cm**-1
  16:       156.63 cm**-1
  17:       174.16 cm**-1
  18:       183.78 cm**-1
  19:       232.59 cm**-1
  20:       239.82 cm**-1
  21:       268.36 cm**-1
  22:       282.16 cm**-1
  23:       308.83 cm**-1
  24:       318.11 cm**-1
  25:       344.06 cm**-1
  26:       370.11 cm**-1
  27:       376.46 cm**-1
  28:       415.13 cm**-1
  29:       436.71 cm**-1
  30:       459.18 cm**-1
  31:       471.98 cm**-1
  32:       521.38 cm**-1
  33:       562.17 cm**-1
  34:       563.33 cm**-1
  35:       584.24 cm**-1
  36:       601.24 cm**-1
  37:       617.15 cm**-1
  38:       622.47 cm**-1
  39:       709.63 cm**-1
  40:       725.10 cm**-1
  41:       745.45 cm**-1
  42:       761.87 cm**-1
  43:       797.63 cm**-1
  44:       831.26 cm**-1
  45:       840.52 cm**-1
  46:       852.10 cm**-1
  47:       909.01 cm**-1
  48:       914.53 cm**-1
  49:       957.50 cm**-1
  50:       995.97 cm**-1
  51:      1048.23 cm**-1
  52:      1073.66 cm**-1
  53:      1085.46 cm**-1
  54:      1113.75 cm**-1
  55:      1136.42 cm**-1
  56:      1136.49 cm**-1
  57:      1145.55 cm**-1
  58:      1161.38 cm**-1
  59:      1192.52 cm**-1
  60:      1207.85 cm**-1
  61:      1216.26 cm**-1
  62:      1232.74 cm**-1
  63:      1292.81 cm**-1
  64:      1303.04 cm**-1
  65:      1306.87 cm**-1
  66:      1326.60 cm**-1
  67:      1334.89 cm**-1
  68:      1369.09 cm**-1
  69:      1384.26 cm**-1
  70:      1420.31 cm**-1
  71:      1427.05 cm**-1
  72:      1458.06 cm**-1
  73:      1503.41 cm**-1
  74:      1532.22 cm**-1
  75:      1573.83 cm**-1
  76:      1608.83 cm**-1
  77:      1634.36 cm**-1
  78:      1640.53 cm**-1
  79:      1648.83 cm**-1
  80:      1702.43 cm**-1
  81:      1705.62 cm**-1
  82:      1734.77 cm**-1
  83:      1762.22 cm**-1
  84:      1804.95 cm**-1
  85:      1816.54 cm**-1
  86:      1835.42 cm**-1
  87:      1876.27 cm**-1
  88:      3536.95 cm**-1
  89:      3652.57 cm**-1
  90:      3675.71 cm**-1
  91:      3680.08 cm**-1
  92:      3688.98 cm**-1
  93:      3699.44 cm**-1
  94:      3736.99 cm**-1
  95:      3765.69 cm**-1


------------
NORMAL MODES
------------

These modes are the Cartesian displacements weighted by the diagonal matrix
M(i,i)=1/sqrt(m[i]) where m[i] is the mass of the displaced atom
Thus, these vectors are normalized but *not* orthogonal

                  0          1          2          3          4          5    
      0       0.000000   0.000000   0.000000   0.000000   0.000000   0.000000
      1       0.000000   0.000000   0.000000   0.000000   0.000000   0.000000
      2       0.000000   0.000000   0.000000   0.000000   0.000000   0.000000
      3       0.000000   0.000000   0.000000   0.000000   0.000000   0.000000
      4       0.000000   0.000000   0.000000   0.000000   0.000000   0.000000
      5       0.000000   0.000000   0.000000   0.000000   0.000000   0.000000
      6       0.000000   0.000000   0.000000   0.000000   0.000000   0.000000
      7       0.000000   0.000000   0.000000   0.000000   0.000000   0.000000
      8       0.000000   0.000000   0.000000   0.000000   0.000000   0.000000
      9       0.000000   0.000000   0.000000   0.000000   0.000000   0.000000
     10       0.000000   0.000000   0.000000   0.000000   0.000000   0.000000
     11       0.000000   0.000000   0.000000   0.000000   0.000000   0.000000
     12       0.000000   0.000000   0.000000   0.000000   0.000000   0.000000
     13       0.000000   0.000000   0.000000   0.000000   0.000000   0.000000
     14       0.000000   0.000000   0.000000   0.000000   0.000000   0.000000
     15       0.000000   0.000000   0.000000   0.000000   0.000000   0.000000
     16       0.000000   0.000000   0.000000   0.000000   0.000000   0.000000
     17       0.000000   0.000000   0.000000   0.000000   0.000000   0.000000
     18       0.000000   0.000000   0.000000   0.000000   0.000000   0.000000
     19       0.000000   0.000000   0.000000   0.000000   0.000000   0.000000
     20       0.000000   0.000000   0.000000   0.000000   0.000000   0.000000
     21       0.000000   0.000000   0.000000   0.000000   0.000000   0.000000
     22       0.000000   0.000000   0.000000   0.000000   0.000000   0.000000
     23       0.000000   0.000000   0.000000   0.000000   0.000000   0.000000
     24       0.000000   0.000000   0.000000   0.000000   0.000000   0.000000
     25       0.000000   0.000000   0.000000   0.000000   0.000000   0.000000
     26       0.000000   0.000000   0.000000   0.000000   0.000000   0.000000
     27       0.000000   0.000000   0.000000   0.000000   0.000000   0.000000
     28       0.000000   0.000000   0.000000   0.000000   0.000000   0.000000
     29       0.000000   0.000000   0.000000   0.000000   0.000000   0.000000
     30       0.000000   0.000000   0.000000   0.000000   0.000000   0.000000
     31       0.000000   0.000000   0.000000   0.000000   0.000000   0.000000
     32       0.000000   0.000000   0.000000   0.000000   0.000000   0.000000
     33       0.000000   0.000000   0.000000   0.000000   0.000000   0.000000
     34       0.000000   0.000000   0.000000   0.000000   0.000000   0.000000
     35       0.000000   0.000000   0.000000   0.000000   0.000000   0.000000
     36       0.000000   0.000000   0.000000   0.000000   0.000000   0.000000
     37       0.000000   0.000000   0.000000   0.000000   0.000000   0.000000
     38       0.000000   0.000000   0.000000   0.000000   0.000000   0.000000
     39       0.000000   0.000000   0.000000   0.000000   0.000000   0.000000
     40       0.000000   0.000000   0.000000   0.000000   0.000000   0.000000
     41       0.000000   0.000000   0.000000   0.000000   0.000000   0.000000
     42       0.000000   0.000000   0.000000   0.000000   0.000000   0.000000
     43       0.000000   0.000000   0.000000   0.000000   0.000000   0.000000
     44       0.000000   0.000000   0.000000   0.000000   0.000000   0.000000
     45       0.000000   0.000000   0.000000   0.000000   0.000000   0.000000
     46       0.000000   0.000000   0.000000   0.000000   0.000000   0.000000
     47       0.000000   0.000000   0.000000   0.000000   0.000000   0.000000
     48       0.000000   0.000000   0.000000   0.000000   0.000000   0.000000
     49       0.000000   0.000000   0.000000   0.000000   0.000000   0.000000
     50       0.000000   0.000000   0.000000   0.000000   0.000000   0.000000
     51       0.000000   0.000000   0.000000   0.000000   0.000000   0.000000
     52       0.000000   0.000000   0.000000   0.000000   0.000000   0.000000
     53       0.000000   0.000000   0.000000   0.000000   0.000000   0.000000
     54       0.000000   0.000000   0.000000   0.000000   0.000000   0.000000
     55       0.000000   0.000000   0.000000   0.000000   0.000000   0.000000
     56       0.000000   0.000000   0.000000   0.000000   0.000000   0.000000
     57       0.000000   0.000000   0.000000   0.000000   0.000000   0.000000
     58       0.000000   0.000000   0.000000   0.000000   0.000000   0.000000
     59       0.000000   0.000000   0.000000   0.000000   0.000000   0.000000
     60       0.000000   0.000000   0.000000   0.000000   0.000000   0.000000
     61       0.000000   0.000000   0.000000   0.000000   0.000000   0.000000
     62       0.000000   0.000000   0.000000   0.000000   0.000000   0.000000
     63       0.000000   0.000000   0.000000   0.000000   0.000000   0.000000
     64       0.000000   0.000000   0.000000   0.000000   0.000000   0.000000
     65       0.000000   0.000000   0.000000   0.000000   0.000000   0.000000
     66       0.000000   0.000000   0.000000   0.000000   0.000000   0.000000
     67       0.000000   0.000000   0.000000   0.000000   0.000000   0.000000
     68       0.000000   0.000000   0.000000   0.000000   0.000000   0.000000
     69       0.000000   0.000000   0.000000   0.000000   0.000000   0.000000
     70       0.000000   0.000000   0.000000   0.000000   0.000000   0.000000
     71       0.000000   0.000000   0.000000   0.000000   0.000000   0.000000
     72       0.000000   0.000000   0.000000   0.000000   0.000000   0.000000
     73       0.000000   0.000000   0.000000   0.000000   0.000000   0.000000
     74       0.000000   0.000000   0.000000   0.000000   0.000000   0.000000
     75       0.000000   0.000000   0.000000   0.000000   0.000000   0.000000
     76       0.000000   0.000000   0.000000   0.000000   0.000000   0.000000
     77       0.000000   0.000000   0.000000   0.000000   0.000000   0.000000
     78       0.000000   0.000000   0.000000   0.000000   0.000000   0.000000
     79       0.000000   0.000000   0.000000   0.000000   0.000000   0.000000
     80       0.000000   0.000000   0.000000   0.000000   0.000000   0.000000
     81       0.000000   0.000000   0.000000   0.000000   0.000000   0.000000
     82       0.000000   0.000000   0.000000   0.000000   0.000000   0.000000
     83       0.000000   0.000000   0.000000   0.000000   0.000000   0.000000
     84       0.000000   0.000000   0.000000   0.000000   0.000000   0.000000
     85       0.000000   0.000000   0.000000   0.000000   0.000000   0.000000
     86       0.000000   0.000000   0.000000   0.000000   0.000000   0.000000
     87       0.000000   0.000000   0.000000   0.000000   0.000000   0.000000
     88       0.000000   0.000000   0.000000   0.000000   0.000000   0.000000
     89       0.000000   0.000000   0.000000   0.000000   0.000000   0.000000
     90       0.000000   0.000000   0.000000   0.000000   0.000000   0.000000
     91       0.000000   0.000000   0.000000   0.000000   0.000000   0.000000
     92       0.000000   0.000000   0.000000   0.000000   0.000000   0.000000
     93       0.000000   0.000000   0.000000   0.000000   0.000000   0.000000
     94       0.000000   0.000000   0.000000   0.000000   0.000000   0.000000
     95       0.000000   0.000000   0.000000   0.000000   0.000000   0.000000
                  6          7          8          9         10         11    
      0      -0.198928  -0.049382  -0.045341   0.151175   0.038764  -0.138479
      1       0.252628   0.021926  -0.197698   0.015055   0.035085   0.101964
      2       0.011554  -0.021280   0.044418  -0.099906  -0.008477   0.003984
      3      -0.091808  -0.024791  -0.023271   0.059233   0.076728  -0.057684
      4       0.116458   0.003343  -0.086193   0.006991  -0.052230  -0.028593
      5       0.002344  -0.027989  -0.008070  -0.046384   0.002878   0.007808
      6      -0.002456  -0.008645  -0.002874  -0.005398   0.036534  -0.078801
      7       0.003439  -0.003238   0.002244  -0.007738   0.015938   0.023799
      8       0.027151  -0.021070   0.017912  -0.083359  -0.004455   0.005195
      9      -0.001642  -0.011827  -0.001894  -0.004900   0.009712  -0.085757
     10       0.004952   0.003737   0.006210  -0.013436   0.063389   0.042601
     11       0.056193  -0.009404   0.072881  -0.128109  -0.009216   0.005110
     12      -0.000895  -0.018243  -0.001042  -0.003783   0.006956  -0.024499
     13       0.003509   0.005976  -0.000336  -0.014158   0.061020   0.037648
     14       0.042186  -0.013116   0.006485  -0.140064  -0.011728   0.001100
     15      -0.001288  -0.037760  -0.001038  -0.006673   0.004116   0.029592
     16       0.000218  -0.017700  -0.004300  -0.028361   0.057420   0.102619
     17       0.008849  -0.027143  -0.041943  -0.269072  -0.019998  -0.016131
     18      -0.000697  -0.018527  -0.000970  -0.002822   0.008395  -0.013968
     19       0.003715   0.011556  -0.002231  -0.003406   0.061258  -0.025100
     20       0.052900  -0.002441   0.000204  -0.015526  -0.005710   0.011454
     21       0.001530   0.016708   0.001849   0.006258   0.001426   0.123202
     22       0.001875  -0.010105  -0.011809   0.000571   0.066905  -0.111769
     23       0.046901  -0.000274  -0.087086   0.094363  -0.004175   0.007656
     24       0.003230  -0.236788  -0.021160   0.034071   0.000862   0.121655
     25      -0.004031   0.070849  -0.051231   0.042287   0.079026  -0.278611
     26       0.051613  -0.479318  -0.116848   0.130650  -0.008831   0.051974
     27       0.005449  -0.165478  -0.015129   0.038674  -0.007539   0.264996
     28      -0.000918   0.187997  -0.042062   0.049682   0.064601  -0.043342
     29       0.038942   0.475494  -0.112728   0.132764   0.001404  -0.037962
     30      -0.001109   0.507045   0.045591  -0.041179   0.001657   0.153042
     31       0.008606  -0.319300   0.047176  -0.086916   0.066089  -0.125184
     32       0.044663   0.006268  -0.124062   0.144632  -0.003785   0.005759
     33      -0.001503  -0.014698  -0.001751  -0.004189   0.009861  -0.072597
     34       0.005136   0.012499   0.003422   0.004147   0.060379  -0.049561
     35       0.071628   0.008083   0.061762   0.069534   0.000579   0.018476
     36      -0.002045  -0.010473  -0.002231  -0.005115   0.008525  -0.110773
     37       0.005671   0.009529   0.008252  -0.001086   0.061378  -0.006315
[...]
     64       0.014054  -0.000161  -0.019496  -0.013716   0.000164  -0.000029
     65       0.034078  -0.000276  -0.053518  -0.042192   0.000493  -0.000146
     66      -0.057536   0.001818   0.000241  -0.055493   0.000550   0.000049
     67      -0.030042   0.000946   0.000636  -0.028998   0.000280   0.000061
     68       0.003244  -0.000102   0.006084   0.003130  -0.000029  -0.000010
     69       0.020655  -0.000247   0.027375  -0.018342   0.000239  -0.000090
     70       0.007802  -0.000109   0.009672  -0.005974   0.000075  -0.000006
     71      -0.036598   0.000305  -0.056699   0.044123  -0.000531   0.000181
     72      -0.003716  -0.187881  -0.003051  -0.001111   0.000057  -0.001058
     73      -0.000407  -0.023205  -0.000445  -0.000437   0.000059  -0.000461
     74       0.005489   0.281920   0.004412   0.001748  -0.000107   0.001822
     75      -0.006281  -0.291783   0.000043  -0.003419   0.000254   0.000164
     76      -0.017672  -0.825006   0.000119  -0.009711   0.000667   0.000386
     77       0.001541   0.072039  -0.000067   0.000862  -0.000061  -0.000037
     78      -0.003496  -0.179182   0.003120  -0.001005   0.000064  -0.001118
     79      -0.001217  -0.066456   0.001207  -0.000684   0.000088  -0.000781
     80      -0.004998  -0.259936   0.004329  -0.001492   0.000105  -0.001803
     81      -0.002421   0.001323  -0.000255   0.004802   0.276564  -0.957100
     82      -0.000089   0.000047   0.000012   0.000531   0.002076  -0.003446
     83      -0.000036   0.000023   0.000167   0.000051   0.005229  -0.018439
     84       0.000117  -0.000097   0.000013  -0.002972  -0.280415  -0.079111
     85       0.000352  -0.000269   0.000048  -0.009772  -0.910790  -0.260874
     86      -0.000032   0.000024   0.000056   0.000878   0.081684   0.023382
     87      -0.213155   0.002102   0.313736   0.231420  -0.002807   0.000890
     88      -0.146203   0.001494   0.215414   0.158793  -0.001926   0.000489
     89      -0.400937   0.003905   0.592305   0.435462  -0.005244   0.001536
     90       0.647165  -0.020070  -0.001991   0.598276  -0.006059  -0.000333
     91       0.338236  -0.010467  -0.001050   0.312691  -0.003179  -0.000286
     92      -0.036422   0.001128  -0.000134  -0.033649   0.000341   0.000031
     93      -0.206076   0.002022  -0.302088   0.221724  -0.002759   0.000993
     94      -0.072912   0.000776  -0.106737   0.078485  -0.000986   0.000264
     95       0.426364  -0.004142   0.627265  -0.458903   0.005674  -0.001909


-----------
IR SPECTRUM
-----------

 Mode   freq       eps      Int      T**2         TX        TY        TZ
       cm**-1   L/(mol*cm) km/mol    a.u.
----------------------------------------------------------------------------
  6:      5.38   0.000016    0.08  0.000928  (-0.002212  0.003721  0.030158)
  7:     20.41   0.000005    0.03  0.000082  (-0.005511  0.000499 -0.007142)
  8:     32.36   0.000023    0.12  0.000225  (-0.001253  0.001953  0.014832)
  9:     44.98   0.000005    0.02  0.000032  (-0.001486  0.000818 -0.005372)
 10:     53.35   0.000108    0.55  0.000634  ( 0.012302 -0.021866  0.002183)
 11:     66.19   0.000013    0.06  0.000060  ( 0.003307 -0.006695 -0.002164)
 12:     79.67   0.000538    2.72  0.002109  (-0.001469 -0.003048 -0.045794)
 13:     96.99   0.000092    0.47  0.000297  ( 0.009842 -0.014144  0.000160)
 14:    111.08   0.000009    0.04  0.000025  (-0.000878 -0.001892 -0.004524)
 15:    128.63   0.000067    0.34  0.000164  ( 0.001282 -0.000461 -0.012719)
 16:    156.63   0.000040    0.20  0.000080  (-0.008708  0.001623  0.001344)
 17:    174.16   0.000133    0.67  0.000239  ( 0.014843  0.003001 -0.003090)
 18:    183.78   0.000030    0.15  0.000051  ( 0.003333 -0.000482  0.006283)
 19:    232.59   0.000000    0.00  0.000000  ( 0.000055  0.000030  0.000628)
 20:    239.82   0.000217    1.10  0.000283  ( 0.010132  0.013358 -0.001217)
 21:    268.36   0.000009    0.05  0.000011  ( 0.001715  0.002767  0.000134)
 22:    282.16   0.000433    2.19  0.000479  ( 0.012497  0.017856 -0.001883)
 23:    308.83   0.000033    0.17  0.000034  ( 0.005482  0.001610 -0.001010)
 24:    318.11   0.000112    0.57  0.000110  ( 0.000183  0.010464 -0.000744)
 25:    344.06   0.000074    0.37  0.000067  (-0.001033  0.000719  0.008100)
 26:    370.11   0.000101    0.51  0.000085  ( 0.009084 -0.001560 -0.000061)
 27:    376.46   0.000009    0.05  0.000008  (-0.001508 -0.002063 -0.001083)
 28:    415.13   0.000742    3.75  0.000558  ( 0.012798 -0.019699  0.002481)
 29:    436.71   0.000305    1.54  0.000218  (-0.000253 -0.002807 -0.014484)
 30:    459.18   0.001122    5.67  0.000763  (-0.020917 -0.017903  0.002140)
 31:    471.98   0.000042    0.21  0.000028  (-0.002842 -0.003851 -0.002228)
 32:    521.38   0.000094    0.47  0.000056  (-0.002629  0.006871 -0.001388)
 33:    562.17   0.001160    5.86  0.000644  ( 0.021692 -0.012984 -0.002178)
 34:    563.33   0.001093    5.53  0.000606  (-0.001912 -0.000055 -0.024536)
 35:    584.24   0.000144    0.73  0.000077  (-0.004177 -0.007707 -0.000392)
 36:    601.24   0.000236    1.19  0.000123  (-0.009178 -0.006003  0.001525)
 37:    617.15   0.000402    2.03  0.000203  ( 0.001921 -0.000446 -0.014124)
 38:    622.47   0.000002    0.01  0.000001  (-0.000108 -0.000071 -0.000865)
 39:    709.63   0.001050    5.31  0.000462  (-0.009066  0.019454 -0.001105)
 40:    725.10   0.000020    0.10  0.000009  (-0.000209  0.000357  0.002927)
 41:    745.45   0.007180   36.28  0.003006  ( 0.035392  0.041641 -0.004374)
 42:    761.87   0.000869    4.39  0.000356  ( 0.000883  0.001515  0.018790)
 43:    797.63   0.000594    3.00  0.000232  ( 0.008073  0.012851 -0.001431)
 44:    831.26   0.000700    3.54  0.000263  ( 0.015676  0.004042 -0.000801)
 45:    840.52   0.000101    0.51  0.000037  ( 0.002241  0.000239 -0.005686)
 46:    852.10   0.000305    1.54  0.000112  (-0.002123 -0.002116 -0.010126)
 47:    909.01   0.010911   55.14  0.003746  ( 0.000438 -0.006768 -0.060825)
 48:    914.53   0.002423   12.24  0.000827  (-0.016985  0.022663 -0.004956)
 49:    957.50   0.005879   29.71  0.001916  (-0.019509  0.039059 -0.003149)
 50:    995.97   0.005513   27.86  0.001727  (-0.001072  0.003730  0.041379)
 51:   1048.23   0.002341   11.83  0.000697  (-0.021747 -0.014933  0.001069)
 52:   1073.66   0.006458   32.64  0.001877  ( 0.043258  0.002371  0.000355)
 53:   1085.46   0.000166    0.84  0.000048  ( 0.000555 -0.000701 -0.006845)
 54:   1113.75   0.000000    0.00  0.000000  ( 0.000045 -0.000060 -0.000261)
 55:   1136.42   0.001248    6.31  0.000343  (-0.014497 -0.005789 -0.009952)
 56:   1136.49   0.001259    6.36  0.000346  (-0.008522 -0.001274  0.016473)
 57:   1145.55   0.003146   15.90  0.000857  (-0.017838 -0.023143  0.001827)
 58:   1161.38   0.000824    4.16  0.000221  (-0.013801 -0.005502  0.000763)
 59:   1192.52   0.022320  112.80  0.005841  ( 0.048037  0.059313 -0.003901)
 60:   1207.85   0.000092    0.47  0.000024  (-0.004406  0.002096 -0.000231)
 61:   1216.26   0.012916   65.27  0.003314  ( 0.025121  0.051673 -0.003585)
 62:   1232.74   0.001497    7.57  0.000379  ( 0.001194 -0.000685 -0.019418)
 63:   1292.81   0.014296   72.24  0.003451  ( 0.037424  0.045176 -0.003048)
 64:   1303.04   0.001811    9.15  0.000434  (-0.013305  0.015992 -0.000908)
 65:   1306.87   0.001158    5.85  0.000276  ( 0.000106 -0.001563 -0.016552)
 66:   1326.60   0.000594    3.00  0.000140  (-0.010979 -0.004360  0.000471)
 67:   1334.89   0.006764   34.18  0.001581  (-0.008636 -0.038646  0.003626)
 68:   1369.09   0.001894    9.57  0.000432  (-0.000342 -0.002000 -0.020680)
 69:   1384.26   0.031591  159.65  0.007122  ( 0.019647  0.004382  0.081954)
 70:   1420.31   0.033826  170.94  0.007432  (-0.079801  0.028492  0.015877)
 71:   1427.05   0.006113   30.89  0.001337  (-0.004531  0.035336 -0.008226)
 72:   1458.06   0.002105   10.64  0.000451  (-0.017375 -0.012055  0.001840)
 73:   1503.41   0.005891   29.77  0.001223  ( 0.009059 -0.033464  0.004559)
 74:   1532.22   0.005199   26.27  0.001059  ( 0.009780  0.030850 -0.003388)
 75:   1573.83   0.002947   14.89  0.000584  (-0.020393 -0.012936  0.001009)
 76:   1608.83   0.000091    0.46  0.000018  (-0.001370 -0.003909  0.000669)
 77:   1634.36   0.001982   10.02  0.000378  ( 0.018930  0.004262 -0.001372)
 78:   1640.53   0.017620   89.04  0.003352  (-0.000310 -0.004884 -0.057687)
 79:   1648.83   0.013260   67.01  0.002510  (-0.044961 -0.022079  0.000828)
 80:   1702.43   0.004843   24.48  0.000888  (-0.016194 -0.014457 -0.020410)
 81:   1705.62   0.008356   42.23  0.001529  ( 0.028355  0.020958 -0.016898)
 82:   1734.77   0.028094  141.97  0.005054  (-0.064587 -0.029578  0.002721)
 83:   1762.22   0.023817  120.36  0.004218  ( 0.055197 -0.033981  0.004016)
 84:   1804.95   0.003559   17.99  0.000615  ( 0.000407  0.002180  0.024707)
 85:   1816.54   0.002798   14.14  0.000481  (-0.020663  0.007304 -0.000607)
 86:   1835.42   0.005440   27.49  0.000925  (-0.028275  0.011145 -0.001073)
 87:   1876.27   0.000408    2.06  0.000068  (-0.003221 -0.007541  0.000785)
 88:   3536.95   0.010256   51.83  0.000905  ( 0.020761 -0.021670  0.002066)
 89:   3652.57   0.007895   39.90  0.000675  ( 0.000428  0.002472  0.025850)
 90:   3675.71   0.000664    3.36  0.000056  ( 0.006744  0.003297 -0.000265)
 91:   3680.08   0.013926   70.38  0.001181  (-0.019371 -0.028268  0.002562)
 92:   3688.98   0.045430  229.58  0.003843  ( 0.000447  0.005469  0.061749)
 93:   3699.44   0.058324  294.75  0.004920  ( 0.063595  0.029432 -0.003063)
 94:   3736.99   0.018779   94.90  0.001568  (-0.013246 -0.037175  0.003271)
 95:   3765.69   0.033527  169.43  0.002778  (-0.042846 -0.030628  0.002142)

* The epsilon (eps) is given for a Dirac delta lineshape.
** The dipole moment derivative (T) already includes vibrational overlap.

The first frequency considered to be a vibration is 6
The total number of vibrations considered is 90


--------------------------
THERMOCHEMISTRY AT 298.15K
--------------------------

Temperature         ... 298.15 K
Pressure            ... 1.00 atm
Total Mass          ... 395.59 AMU

Throughout the following assumptions are being made:
  (1) The electronic state is orbitally nondegenerate
  (2) There are no thermally accessible electronically excited states
  (3) Hindered rotations indicated by low frequency modes are not
      treated as such but are treated as vibrations and this may
      cause some error
  (4) All equations used are the standard statistical mechanics
      equations for an ideal gas
  (5) All vibrations are strictly harmonic

freq.       5.38  E(vib)   ...       0.58 
freq.      20.41  E(vib)   ...       0.56 
freq.      32.36  E(vib)   ...       0.55 
freq.      44.98  E(vib)   ...       0.53 
freq.      53.35  E(vib)   ...       0.52 
freq.      66.19  E(vib)   ...       0.50 
freq.      79.67  E(vib)   ...       0.49 
freq.      96.99  E(vib)   ...       0.46 
freq.     111.08  E(vib)   ...       0.45 
freq.     128.63  E(vib)   ...       0.43 
freq.     156.63  E(vib)   ...       0.40 
freq.     174.16  E(vib)   ...       0.38 
freq.     183.78  E(vib)   ...       0.37 
freq.     232.59  E(vib)   ...       0.32 
freq.     239.82  E(vib)   ...       0.31 
freq.     268.36  E(vib)   ...       0.29 
freq.     282.16  E(vib)   ...       0.28 
freq.     308.83  E(vib)   ...       0.26 
freq.     318.11  E(vib)   ...       0.25 
freq.     344.06  E(vib)   ...       0.23 
freq.     370.11  E(vib)   ...       0.21 
freq.     376.46  E(vib)   ...       0.21 
freq.     415.13  E(vib)   ...       0.19 
freq.     436.71  E(vib)   ...       0.17 
freq.     459.18  E(vib)   ...       0.16 
freq.     471.98  E(vib)   ...       0.15 
freq.     521.38  E(vib)   ...       0.13 
freq.     562.17  E(vib)   ...       0.11 
freq.     563.33  E(vib)   ...       0.11 
freq.     584.24  E(vib)   ...       0.11 
freq.     601.24  E(vib)   ...       0.10 
freq.     617.15  E(vib)   ...       0.09 
freq.     622.47  E(vib)   ...       0.09 
freq.     709.63  E(vib)   ...       0.07 
freq.     725.10  E(vib)   ...       0.06 
freq.     745.45  E(vib)   ...       0.06 
freq.     761.87  E(vib)   ...       0.06 
freq.     797.63  E(vib)   ...       0.05 
freq.     831.26  E(vib)   ...       0.04 
freq.     840.52  E(vib)   ...       0.04 
freq.     852.10  E(vib)   ...       0.04 
freq.     909.01  E(vib)   ...       0.03 
freq.     914.53  E(vib)   ...       0.03 
freq.     957.50  E(vib)   ...       0.03 
freq.     995.97  E(vib)   ...       0.02 
freq.    1048.23  E(vib)   ...       0.02 
freq.    1073.66  E(vib)   ...       0.02 
freq.    1085.46  E(vib)   ...       0.02 
freq.    1113.75  E(vib)   ...       0.01 
freq.    1136.42  E(vib)   ...       0.01 
freq.    1136.49  E(vib)   ...       0.01 
freq.    1145.55  E(vib)   ...       0.01 
freq.    1161.38  E(vib)   ...       0.01 
freq.    1192.52  E(vib)   ...       0.01 
freq.    1207.85  E(vib)   ...       0.01 
freq.    1216.26  E(vib)   ...       0.01 
freq.    1232.74  E(vib)   ...       0.01 
freq.    1292.81  E(vib)   ...       0.01 
freq.    1303.04  E(vib)   ...       0.01 
freq.    1306.87  E(vib)   ...       0.01 
freq.    1326.60  E(vib)   ...       0.01 
freq.    1334.89  E(vib)   ...       0.01 
freq.    1369.09  E(vib)   ...       0.01 
freq.    1384.26  E(vib)   ...       0.00 
freq.    1420.31  E(vib)   ...       0.00 
freq.    1427.05  E(vib)   ...       0.00 
freq.    1458.06  E(vib)   ...       0.00 
freq.    1503.41  E(vib)   ...       0.00 
freq.    1532.22  E(vib)   ...       0.00 
freq.    1573.83  E(vib)   ...       0.00 
freq.    1608.83  E(vib)   ...       0.00 
freq.    1634.36  E(vib)   ...       0.00 
freq.    1640.53  E(vib)   ...       0.00 
freq.    1648.83  E(vib)   ...       0.00 
freq.    1702.43  E(vib)   ...       0.00 
freq.    1705.62  E(vib)   ...       0.00 
freq.    1734.77  E(vib)   ...       0.00 
freq.    1762.22  E(vib)   ...       0.00 
freq.    1804.95  E(vib)   ...       0.00 
freq.    1816.54  E(vib)   ...       0.00 
freq.    1835.42  E(vib)   ...       0.00 
freq.    1876.27  E(vib)   ...       0.00 
freq.    3536.95  E(vib)   ...       0.00 
freq.    3652.57  E(vib)   ...       0.00 
freq.    3675.71  E(vib)   ...       0.00 
freq.    3680.08  E(vib)   ...       0.00 
freq.    3688.98  E(vib)   ...       0.00 
freq.    3699.44  E(vib)   ...       0.00 
freq.    3736.99  E(vib)   ...       0.00 
freq.    3765.69  E(vib)   ...       0.00 

------------
INNER ENERGY
------------

The inner energy is: U= E(el) + E(ZPE) + E(vib) + E(rot) + E(trans)
    E(el)   - is the total energy from the electronic structure calculation
              = E(kin-el) + E(nuc-el) + E(el-el) + E(nuc-nuc)
    E(ZPE)  - the the zero temperature vibrational energy from the frequency calculation
    E(vib)  - the the finite temperature correction to E(ZPE) due to population
              of excited vibrational states
    E(rot)  - is the rotational thermal energy
    E(trans)- is the translational thermal energy

Summary of contributions to the inner energy U:
Electronic energy                ...  -2419.94505470 Eh
Zero point energy                ...      0.23232662 Eh     145.79 kcal/mol
Thermal vibrational correction   ...      0.01718776 Eh      10.79 kcal/mol
Thermal rotational correction    ...      0.00141627 Eh       0.89 kcal/mol
Thermal translational correction ...      0.00141627 Eh       0.89 kcal/mol
-----------------------------------------------------------------------
Total thermal energy                  -2419.69270777 Eh


Summary of corrections to the electronic energy:
(perhaps to be used in another calculation)
Total thermal correction                  0.02002030 Eh      12.56 kcal/mol
Non-thermal (ZPE) correction              0.23232662 Eh     145.79 kcal/mol
-----------------------------------------------------------------------
Total correction                          0.25234692 Eh     158.35 kcal/mol


--------
ENTHALPY
--------

The enthalpy is H = U + kB*T
                kB is Boltzmann's constant
Total free energy                 ...  -2419.69270777 Eh 
Thermal Enthalpy correction       ...      0.00094421 Eh       0.59 kcal/mol
-----------------------------------------------------------------------
Total Enthalpy                    ...  -2419.69176356 Eh


Note: Only C1 symmetry has been detected, increase convergence thresholds 
      if your molecule has a higher symmetry. Symmetry factor of 1.0 is   
      used for the rotational entropy correction. 
 

Note: Rotational entropy computed according to Herzberg 
Infrared and Raman Spectra, Chapter V,1, Van Nostrand Reinhold, 1945 
Point Group:  C1, Symmetry Number:   1  
Rotational constants in cm-1:     0.006284     0.005533     0.003801 

Vibrational entropy computed according to the QRRHO of S. Grimme
Chem.Eur.J. 2012 18 9955


-------
ENTROPY
-------

The entropy contributions are T*S = T*(S(el)+S(vib)+S(rot)+S(trans))
     S(el)   - electronic entropy
     S(vib)  - vibrational entropy
     S(rot)  - rotational entropy
     S(trans)- translational entropy
The entropies will be listed as multiplied by the temperature to get
units of energy

Electronic entropy                ...      0.00000000 Eh      0.00 kcal/mol
Vibrational entropy               ...      0.03195915 Eh     20.05 kcal/mol
Rotational entropy                ...      0.01698835 Eh     10.66 kcal/mol
Translational entropy             ...      0.02081893 Eh     13.06 kcal/mol
-----------------------------------------------------------------------
Final entropy term                ...      0.06976642 Eh     43.78 kcal/mol

In case the symmetry of your molecule has not been determined correctly
or in case you have a reason to use a different symmetry number we print 
out the resulting rotational entropy values for sn=1,12 :
 --------------------------------------------------------
|  sn= 1 | S(rot)=       0.01698835 Eh     10.66 kcal/mol|
|  sn= 2 | S(rot)=       0.01633389 Eh     10.25 kcal/mol|
|  sn= 3 | S(rot)=       0.01595106 Eh     10.01 kcal/mol|
|  sn= 4 | S(rot)=       0.01567944 Eh      9.84 kcal/mol|
|  sn= 5 | S(rot)=       0.01546875 Eh      9.71 kcal/mol|
|  sn= 6 | S(rot)=       0.01529660 Eh      9.60 kcal/mol|
|  sn= 7 | S(rot)=       0.01515106 Eh      9.51 kcal/mol|
|  sn= 8 | S(rot)=       0.01502498 Eh      9.43 kcal/mol|
|  sn= 9 | S(rot)=       0.01491377 Eh      9.36 kcal/mol|
|  sn=10 | S(rot)=       0.01481429 Eh      9.30 kcal/mol|
|  sn=11 | S(rot)=       0.01472430 Eh      9.24 kcal/mol|
|  sn=12 | S(rot)=       0.01464215 Eh      9.19 kcal/mol|
 --------------------------------------------------------


-------------------
GIBBS FREE ENERGY
-------------------

The Gibbs free energy is G = H - T*S

Total enthalpy                    ...  -2419.69176356 Eh 
Total entropy correction          ...     -0.06976642 Eh    -43.78 kcal/mol
-----------------------------------------------------------------------
Final Gibbs free energy         ...  -2419.76152999 Eh

For completeness - the Gibbs free energy minus the electronic energy
G-E(el)                           ...      0.18352471 Eh    115.16 kcal/mol


Timings for individual modules:

Sum of individual times         ...     1724.599 sec (=  28.743 min)
GTO integral calculation        ...        9.250 sec (=   0.154 min)   0.5 %
SCF iterations                  ...       21.955 sec (=   0.366 min)   1.3 %
Analytical frequency calculation...     1693.394 sec (=  28.223 min)  98.2 %
                             ****ORCA TERMINATED NORMALLY****
TOTAL RUN TIME: 0 days 0 hours 28 minutes 46 seconds 800 msec
