
                                 *****************
                                 * O   R   C   A *
                                 *****************

                                            #,
                                            ###
                                            ####
                                            #####
                                            ######
                                           ########,
                                     ,,################,,,,,
                               ,,#################################,,
                          ,,##########################################,,
                       ,#########################################, ''#####,
                    ,#############################################,,   '####,
                  ,##################################################,,,,####,
                ,###########''''           ''''###############################
              ,#####''   ,,,,##########,,,,          '''####'''          '####
            ,##' ,,,,###########################,,,                        '##
           ' ,,###''''                  '''############,,,
         ,,##''                                '''############,,,,        ,,,,,,###''
      ,#''                                            '''#######################'''
     '                                                          ''''####''''
             ,#######,   #######,   ,#######,      ##
            ,#'     '#,  ##    ##  ,#'     '#,    #''#        ######   ,####,
            ##       ##  ##   ,#'  ##            #'  '#       #        #'  '#
            ##       ##  #######   ##           ,######,      #####,   #    #
            '#,     ,#'  ##    ##  '#,     ,#' ,#      #,         ##   #,  ,#
             '#######'   ##     ##  '#######'  #'      '#     #####' # '####'



                  #######################################################
                  #                        -***-                        #
                  #          Department of theory and spectroscopy      #
                  #    Directorship and core code : Frank Neese         #
                  #        Max Planck Institute fuer Kohlenforschung    #
                  #                Kaiser Wilhelm Platz 1               #
                  #                 D-45470 Muelheim/Ruhr               #
                  #                      Germany                        #
                  #                                                     #
                  #                  All rights reserved                #
                  #                        -***-                        #
                  #######################################################



                         Program Version 5.0.4 -  RELEASE  -

 With contributions from (in alphabetic order):
   Daniel Aravena         : Magnetic Suceptibility
   Michael Atanasov       : Ab Initio Ligand Field Theory (pilot matlab implementation)
   Alexander A. Auer      : GIAO ZORA, VPT2 properties, NMR spectrum
   Ute Becker             : Parallelization
   Giovanni Bistoni       : ED, misc. LED, open-shell LED, HFLD
   Martin Brehm           : Molecular dynamics
   Dmytro Bykov           : SCF Hessian
   Vijay G. Chilkuri      : MRCI spin determinant printing, contributions to CSF-ICE
   Dipayan Datta          : RHF DLPNO-CCSD density
   Achintya Kumar Dutta   : EOM-CC, STEOM-CC
   Dmitry Ganyushin       : Spin-Orbit,Spin-Spin,Magnetic field MRCI
   Miquel Garcia          : C-PCM and meta-GGA Hessian, CC/C-PCM, Gaussian charge scheme
   Yang Guo               : DLPNO-NEVPT2, F12-NEVPT2, CIM, IAO-localization
   Andreas Hansen         : Spin unrestricted coupled pair/coupled cluster methods
   Benjamin Helmich-Paris : MC-RPA, TRAH-SCF, COSX integrals
   Lee Huntington         : MR-EOM, pCC
   Robert Izsak           : Overlap fitted RIJCOSX, COSX-SCS-MP3, EOM
   Marcus Kettner         : VPT2
   Christian Kollmar      : KDIIS, OOCD, Brueckner-CCSD(T), CCSD density, CASPT2, CASPT2-K
   Simone Kossmann        : Meta GGA functionals, TD-DFT gradient, OOMP2, MP2 Hessian
   Martin Krupicka        : Initial AUTO-CI
   Lucas Lang             : DCDCAS
   Marvin Lechner         : AUTO-CI (C++ implementation), FIC-MRCC
   Dagmar Lenk            : GEPOL surface, SMD
   Dimitrios Liakos       : Extrapolation schemes; Compound Job, initial MDCI parallelization
   Dimitrios Manganas     : Further ROCIS development; embedding schemes
   Dimitrios Pantazis     : SARC Basis sets
   Anastasios Papadopoulos: AUTO-CI, single reference methods and gradients
   Taras Petrenko         : DFT Hessian,TD-DFT gradient, ASA, ECA, R-Raman, ABS, FL, XAS/XES, NRVS
   Peter Pinski           : DLPNO-MP2, DLPNO-MP2 Gradient
   Christoph Reimann      : Effective Core Potentials
   Marius Retegan         : Local ZFS, SOC
   Christoph Riplinger    : Optimizer, TS searches, QM/MM, DLPNO-CCSD(T), (RO)-DLPNO pert. Triples
   Tobias Risthaus        : Range-separated hybrids, TD-DFT gradient, RPA, STAB
   Michael Roemelt        : Original ROCIS implementation
   Masaaki Saitow         : Open-shell DLPNO-CCSD energy and density
   Barbara Sandhoefer     : DKH picture change effects
   Avijit Sen             : IP-ROCIS
   Kantharuban Sivalingam : CASSCF convergence, NEVPT2, FIC-MRCI
   Bernardo de Souza      : ESD, SOC TD-DFT
   Georgi Stoychev        : AutoAux, RI-MP2 NMR, DLPNO-MP2 response
   Willem Van den Heuvel  : Paramagnetic NMR
   Boris Wezisla          : Elementary symmetry handling
   Frank Wennmohs         : Technical directorship


 We gratefully acknowledge several colleagues who have allowed us to
 interface, adapt or use parts of their codes:
   Stefan Grimme, W. Hujo, H. Kruse, P. Pracht,  : VdW corrections, initial TS optimization,
                  C. Bannwarth, S. Ehlert          DFT functionals, gCP, sTDA/sTD-DF
   Ed Valeev, F. Pavosevic, A. Kumar             : LibInt (2-el integral package), F12 methods
   Garnet Chan, S. Sharma, J. Yang, R. Olivares  : DMRG
   Ulf Ekstrom                                   : XCFun DFT Library
   Mihaly Kallay                                 : mrcc  (arbitrary order and MRCC methods)
   Jiri Pittner, Ondrej Demel                    : Mk-CCSD
   Frank Weinhold                                : gennbo (NPA and NBO analysis)
   Christopher J. Cramer and Donald G. Truhlar   : smd solvation model
   Lars Goerigk                                  : TD-DFT with DH, B97 family of functionals
   V. Asgeirsson, H. Jonsson                     : NEB implementation
   FAccTs GmbH                                   : IRC, NEB, NEB-TS, DLPNO-Multilevel, CI-OPT
                                                   MM, QMMM, 2- and 3-layer-ONIOM, Crystal-QMMM,
                                                   LR-CPCM, SF, NACMEs, symmetry and pop. for TD-DFT,
                                                   nearIR, NL-DFT gradient (VV10), updates on ESD,
                                                   ML-optimized integration grids
   S Lehtola, MJT Oliveira, MAL Marques          : LibXC Library
   Liviu Ungur et al                             : ANISO software


 Your calculation uses the libint2 library for the computation of 2-el integrals
 For citations please refer to: http://libint.valeyev.net

 Your ORCA version has been built with support for libXC version: 5.1.0
 For citations please refer to: https://tddft.org/programs/libxc/

 This ORCA versions uses:
   CBLAS   interface :  Fast vector & matrix operations
   LAPACKE interface :  Fast linear algebra routines
   Shared memory     :  Shared parallel matrices


Your calculation utilizes the geometrical counterpoise correction gCP
Please cite in your paper:
H.Kruse, S. Grimme J.Chem.Phys., 136, (2012), 154101


Your calculation utilizes the atom-pairwise dispersion correction
with the Becke-Johnson damping scheme (D3BJ)
Cite in your paper:
S.Grimme, S.Ehrlich, L.Goerigk, J Comput Chem, (2011), 32, 1456??465
S.Grimme, J.Antony, S.Ehrlich and H.Krieg, J.Chem.Phys., 132, (2010), 154104


================================================================================

----- Orbital basis set information -----
Your calculation utilizes the basis: MINIX,
   a combination of small basis sets by S. Grimme (see manual for definitions).

================================================================================
                                        WARNINGS
                       Please study these warnings very carefully!
================================================================================


INFO   : the flag for use of the SHARK integral package has been found!

================================================================================
                                       INPUT FILE
================================================================================
NAME = GS_vib.inp
|  1> !HF-3c FREQ
|  2> * XYZ 0 1
|  3> Cl          0.04089325   -0.57376462   -2.57209158
|  4>  C         -0.62385529   -0.65920550   -0.95832932
|  5>  C          0.05263567   -0.03387610    0.09284954
|  6>  N          1.26435959    0.66351062   -0.14574181
|  7>  C          1.36038065    2.00288486   -0.46327606
|  8>  C          0.13091625    2.87321806   -0.59922773
|  9>  C          2.69738483    2.24128866   -0.59746677
| 10>  C          3.41650391    3.56130981   -0.96482098
| 11>  F          3.59226942    3.69574451   -2.30163741
| 12>  F          2.71416950    4.64477348   -0.55717486
| 13>  F          4.63621187    3.63049030   -0.39479953
| 14>  N          3.42422175    1.08105242   -0.37470871
| 15>  C          2.55575657    0.14951392   -0.10499687
| 16>  C          2.88326883   -1.25026226    0.20193711
| 17>  C          4.07908821   -1.88155532    0.27885354
| 18>  C          3.79163241   -3.26361036    0.61752528
| 19>  C          2.44351149   -3.34211040    0.71488291
| 20> Cl          1.38047373   -4.65622044    1.08336806
| 21>  O          1.87582171   -2.13160944    0.46630481
| 22>  C         -0.48083594   -0.10721789    1.38269341
| 23> Cl          0.36315462    0.66940707    2.70104623
| 24>  C         -1.66685975   -0.79577708    1.62104547
| 25>  C         -2.32282519   -1.41324043    0.56323707
| 26>  C         -1.81025779   -1.34938514   -0.72660196
| 27>  H         -0.42179474    2.89655161    0.33896962
| 28>  H          0.41985780    3.88769484   -0.85983801
| 29>  H         -0.52415425    2.48144412   -1.37617767
| 30>  H          5.04938936   -1.43620849    0.11846582
| 31>  H          4.50344515   -4.06092024    0.76148486
| 32>  H         -2.06441021   -0.84713566    2.62643814
| 33>  H         -3.24396324   -1.95247710    0.74667037
| 34>  H         -2.31954432   -1.83215117   -1.55065727
| 35> **                         ****END OF INPUT****
================================================================================

                       ****************************
                       * Single Point Calculation *
                       ****************************

---------------------------------
CARTESIAN COORDINATES (ANGSTROEM)
---------------------------------
  Cl     0.040893   -0.573765   -2.572092
  C     -0.623855   -0.659205   -0.958329
  C      0.052636   -0.033876    0.092850
  N      1.264360    0.663511   -0.145742
  C      1.360381    2.002885   -0.463276
  C      0.130916    2.873218   -0.599228
  C      2.697385    2.241289   -0.597467
  C      3.416504    3.561310   -0.964821
  F      3.592269    3.695745   -2.301637
  F      2.714170    4.644773   -0.557175
  F      4.636212    3.630490   -0.394800
  N      3.424222    1.081052   -0.374709
  C      2.555757    0.149514   -0.104997
  C      2.883269   -1.250262    0.201937
  C      4.079088   -1.881555    0.278854
  C      3.791632   -3.263610    0.617525
  C      2.443511   -3.342110    0.714883
  Cl     1.380474   -4.656220    1.083368
  O      1.875822   -2.131609    0.466305
  C     -0.480836   -0.107218    1.382693
  Cl     0.363155    0.669407    2.701046
  C     -1.666860   -0.795777    1.621045
  C     -2.322825   -1.413240    0.563237
  C     -1.810258   -1.349385   -0.726602
  H     -0.421795    2.896552    0.338970
  H      0.419858    3.887695   -0.859838
  H     -0.524154    2.481444   -1.376178
  H      5.049389   -1.436208    0.118466
  H      4.503445   -4.060920    0.761485
  H     -2.064410   -0.847136    2.626438
  H     -3.243963   -1.952477    0.746670
  H     -2.319544   -1.832151   -1.550657

----------------------------
CARTESIAN COORDINATES (A.U.)
----------------------------
  NO LB      ZA    FRAG     MASS         X           Y           Z
   0 Cl   17.0000    0    35.453    0.077277   -1.084258   -4.860549
   1 C     6.0000    0    12.011   -1.178916   -1.245718   -1.810980
   2 C     6.0000    0    12.011    0.099467   -0.064017    0.175460
   3 N     7.0000    0    14.007    2.389293    1.253853   -0.275412
   4 C     6.0000    0    12.011    2.570747    3.784904   -0.875465
   5 C     6.0000    0    12.011    0.247396    5.429595   -1.132376
   6 C     6.0000    0    12.011    5.097319    4.235422   -1.129049
   7 C     6.0000    0    12.011    6.456257    6.729900   -1.823247
   8 F     9.0000    0    18.998    6.788405    6.983945   -4.349464
   9 F     9.0000    0    18.998    5.129037    8.777350   -1.052908
  10 F     9.0000    0    18.998    8.761171    6.860632   -0.746063
  11 N     7.0000    0    14.007    6.470841    2.042893   -0.708097
  12 C     6.0000    0    12.011    4.829680    0.282540   -0.198415
  13 C     6.0000    0    12.011    5.448588   -2.362653    0.381606
  14 C     6.0000    0    12.011    7.708360   -3.555624    0.526957
  15 C     6.0000    0    12.011    7.165147   -6.167330    1.166954
  16 C     6.0000    0    12.011    4.617568   -6.315673    1.350933
  17 Cl   17.0000    0    35.453    2.608717   -8.798981    2.047269
  18 O     8.0000    0    15.999    3.544789   -4.028158    0.881188
  19 C     6.0000    0    12.011   -0.908648   -0.202612    2.612912
  20 Cl   17.0000    0    35.453    0.686263    1.264996    5.104238
  21 C     6.0000    0    12.011   -3.149908   -1.503801    3.063332
  22 C     6.0000    0    12.011   -4.389503   -2.670637    1.064364
  23 C     6.0000    0    12.011   -3.420891   -2.549968   -1.373079
  24 H     1.0000    0     1.008   -0.797077    5.473689    0.640560
  25 H     1.0000    0     1.008    0.793416    7.346679   -1.624858
  26 H     1.0000    0     1.008   -0.990508    4.689250   -2.600599
  27 H     1.0000    0     1.008    9.541963   -2.714041    0.223868
  28 H     1.0000    0     1.008    8.510278   -7.674027    1.438998
  29 H     1.0000    0     1.008   -3.901170   -1.600854    4.963249
  30 H     1.0000    0     1.008   -6.130202   -3.689647    1.411003
  31 H     1.0000    0     1.008   -4.383304   -3.462264   -2.930318

--------------------------------
INTERNAL COORDINATES (ANGSTROEM)
--------------------------------
 Cl     0   0   0     0.000000000000     0.00000000     0.00000000
 C      1   0   0     1.747403615999     0.00000000     0.00000000
 C      2   1   0     1.397731688550   119.24511994     0.00000000
 N      3   2   1     1.418290847403   120.46228748     0.05312041
 C      4   3   2     1.379844700922   125.13136509    90.25541314
 C      5   4   3     1.512463370289   121.51225940   359.52137779
 C      5   4   3     1.364706450429   105.09215334   179.76489153
 C      7   5   4     1.547429223994   128.87681327   179.18326149
 F      8   7   5     1.355007147799   112.27941373   269.72422521
 F      8   7   5     1.354009788307   111.71990509    29.37053652
 F      8   7   5     1.348109009444   111.33701908   149.59460641
 N      7   5   4     1.387105329158   110.57587780     0.19910661
 C     12   7   5     1.301821885855   106.39373557   359.79976852
 C     13  12   7     1.469981667445   125.17083778   180.17655316
 C     14  13  12     1.354411700478   130.72356460     0.08859701
 C     15  14  13     1.451690572408   106.38936682   180.00892470
 C     16  15  14     1.353909442814   105.61326715     0.00000000
 Cl    17  16  15     1.729946757038   132.16163697   180.00607021
 O     17  16  15     1.359917399064   110.54271472     0.00000000
 C      3   2   1     1.397736808492   119.06545589   180.14694274
 Cl    20   3   2     1.747432560034   119.24548019   179.84532351
 C     20   3   2     1.391969087490   120.60865247     0.18403964
 C     22  20   3     1.389428032745   119.45414771   359.95496691
 C     23  22  20     1.389419864877   120.80862356   359.90523582
 H      6   5   4     1.089150201106   110.32929729    60.44408381
 H      6   5   4     1.086539495148   110.03935862   180.45426902
 H      6   5   4     1.089153519619   110.24552698   300.64659159
 H     15  14  13     1.079602862820   126.35674028     0.00000000
 H     16  15  14     1.078473357226   127.17704471   180.00112771
 H     22  20   3     1.082357839569   119.70187515   179.71749620
 H     23  22  20     1.083013974508   119.59507059   179.78975296
 H     24  23  22     1.082359904699   120.84396595   179.85430904

---------------------------
INTERNAL COORDINATES (A.U.)
---------------------------
 Cl     0   0   0     0.000000000000     0.00000000     0.00000000
 C      1   0   0     3.302114279662     0.00000000     0.00000000
 C      2   1   0     2.641330100063   119.24511994     0.00000000
 N      3   2   1     2.680181279839   120.46228748     0.05312041
 C      4   3   2     2.607528592085   125.13136509    90.25541314
 C      5   4   3     2.858141557433   121.51225940   359.52137779
 C      5   4   3     2.578921444506   105.09215334   179.76489153
 C      7   5   4     2.924217444976   128.87681327   179.18326149
 F      8   7   5     2.560592418847   112.27941373   269.72422521
 F      8   7   5     2.558707682549   111.71990509    29.37053652
 F      8   7   5     2.547556826521   111.33701908   149.59460641
 N      7   5   4     2.621249191012   110.57587780     0.19910661
 C     12   7   5     2.460086839411   106.39373557   359.79976852
 C     13  12   7     2.777862773356   125.17083778   180.17655316
 C     14  13  12     2.559467186482   130.72356460     0.08859701
 C     15  14  13     2.743297613046   106.38936682   180.00892470
 C     16  15  14     2.558518057048   105.61326715     0.00000000
 Cl    17  16  15     3.269125597066   132.16163697   180.00607021
 O     17  16  15     2.569871448985   110.54271472     0.00000000
 C      3   2   1     2.641339775351   119.06545589   180.14694274
 Cl    20   3   2     3.302168975961   119.24548019   179.84532351
 C     20   3   2     2.630440362240   120.60865247     0.18403964
 C     22  20   3     2.625638464681   119.45414771   359.95496691
 C     23  22  20     2.625623029648   120.80862356   359.90523582
 H      6   5   4     2.058195598796   110.32929729    60.44408381
 H      6   5   4     2.053262079519   110.03935862   180.45426902
 H      6   5   4     2.058201869877   110.24552698   300.64659159
 H     15  14  13     2.040153744127   126.35674028     0.00000000
 H     16  15  14     2.038019287887   127.17704471   180.00112771
 H     22  20   3     2.045359895687   119.70187515   179.71749620
 H     23  22  20     2.046599811029   119.59507059   179.78975296
 H     24  23  22     2.045363798219   120.84396595   179.85430904

---------------------
BASIS SET INFORMATION
---------------------
There are 6 groups of distinct atoms

 Group   1 Type Cl  : 9s6p1d contracted to 3s2p1d pattern {333/33/1}
 Group   2 Type C   : 6s3p contracted to 2s1p pattern {33/3}
 Group   3 Type N   : 6s3p contracted to 2s1p pattern {33/3}
 Group   4 Type F   : 6s3p contracted to 2s1p pattern {33/3}
 Group   5 Type O   : 6s3p contracted to 2s1p pattern {33/3}
 Group   6 Type H   : 3s contracted to 1s pattern {3}

Atom   0Cl   basis set group =>   1
Atom   1C    basis set group =>   2
Atom   2C    basis set group =>   2
Atom   3N    basis set group =>   3
Atom   4C    basis set group =>   2
Atom   5C    basis set group =>   2
Atom   6C    basis set group =>   2
Atom   7C    basis set group =>   2
Atom   8F    basis set group =>   4
Atom   9F    basis set group =>   4
Atom  10F    basis set group =>   4
Atom  11N    basis set group =>   3
Atom  12C    basis set group =>   2
Atom  13C    basis set group =>   2
Atom  14C    basis set group =>   2
Atom  15C    basis set group =>   2
Atom  16C    basis set group =>   2
Atom  17Cl   basis set group =>   1
Atom  18O    basis set group =>   5
Atom  19C    basis set group =>   2
Atom  20Cl   basis set group =>   1
Atom  21C    basis set group =>   2
Atom  22C    basis set group =>   2
Atom  23C    basis set group =>   2
Atom  24H    basis set group =>   6
Atom  25H    basis set group =>   6
Atom  26H    basis set group =>   6
Atom  27H    basis set group =>   6
Atom  28H    basis set group =>   6
Atom  29H    basis set group =>   6
Atom  30H    basis set group =>   6
Atom  31H    basis set group =>   6
------------------------------------------------------------------------------
                           ORCA GTO INTEGRAL CALCULATION
------------------------------------------------------------------------------
------------------------------------------------------------------------------
                   ___
                  /   \      - P O W E R E D   B Y -
                 /     \
                 |  |  |   _    _      __       _____    __    __
                 |  |  |  | |  | |    /  \     |  _  \  |  |  /  |
                  \  \/   | |  | |   /    \    | | | |  |  | /  /
                 / \  \   | |__| |  /  /\  \   | |_| |  |  |/  /
                |  |  |   |  __  | /  /__\  \  |    /   |      \
                |  |  |   | |  | | |   __   |  |    \   |  |\   \
                \     /   | |  | | |  |  |  |  | |\  \  |  | \   \
                 \___/    |_|  |_| |__|  |__|  |_| \__\ |__|  \__/

                      - O R C A' S   B I G   F R I E N D -
                                      &
                       - I N T E G R A L  F E E D E R -

 v1 FN, 2020, v2 2021
------------------------------------------------------------------------------


Reading SHARK input file GS_vib.SHARKINP.tmp ... ok
----------------------
SHARK INTEGRAL PACKAGE
----------------------

Number of atoms                             ...     32
Number of basis functions                   ...    155
Number of shells                            ...     89
Maximum angular momentum                    ...      2
Integral batch strategy                     ... SHARK/LIBINT Hybrid
RI-J (if used) integral strategy            ... SPLIT-RIJ (Revised 2003 algorithm where possible)
Printlevel                                  ...      1
Contraction scheme used                     ... SEGMENTED contraction
Coulomb Range Separation                    ... NOT USED
Exchange Range Separation                   ... NOT USED
Finite Nucleus Model                        ... NOT USED
Auxiliary Coulomb fitting basis             ... NOT available
Auxiliary J/K fitting basis                 ... NOT available
Auxiliary Correlation fitting basis         ... NOT available
Auxiliary 'external' fitting basis          ... NOT available
Integral threshold                          ...     1.000000e-10
Primitive cut-off                           ...     1.000000e-11
Primitive pair pre-selection threshold      ...     1.000000e-11

Calculating pre-screening integrals         ... done (  0.1 sec) Dimension = 89
Organizing shell pair data                  ... done (  0.0 sec)
Shell pair information
Total number of shell pairs                 ...      4005
Shell pairs after pre-screening             ...      2971
Total number of primitive shell pairs       ...     34449
Primitive shell pairs kept                  ...     14888
          la=0 lb=0:   1184 shell pairs
          la=1 lb=0:   1277 shell pairs
          la=1 lb=1:    340 shell pairs
          la=2 lb=0:    105 shell pairs
          la=2 lb=1:     62 shell pairs
          la=2 lb=2:      3 shell pairs

Calculating one electron integrals          ... done (  0.0 sec)
Calculating Nuclear repulsion               ... done (  0.0 sec) ENN=   2611.992117307469 Eh
Calculating 4-index integrals               ...
    -> SHARK/Ints2Disk: Thresh =     1.000000e-10 TCut=    1.000000e-11
    -> calling libint FockFlag=2 Lmax_loc=2
    -> L=0 1 2 2:     0.021 sec done=      3816 (=100.0%) skipped=         0
    -> L=0 2 2 2:     0.002 sec done=       306 (=100.0%) skipped=         0
    -> L=1 1 1 2:     0.150 sec done=     17951 (=100.0%) skipped=         0
    -> L=1 1 2 2:     0.011 sec done=      1002 (=100.0%) skipped=         0
    -> L=1 2 1 2:     0.016 sec done=      1724 (=100.0%) skipped=         0
    -> L=1 2 2 2:     0.003 sec done=       183 (=100.0%) skipped=         0
    -> L=2 2 2 2:     0.000 sec done=         6 (=100.0%) skipped=         0
    ->Total LIBINT loop time =    0.206 sec
    -> L=0 0 0 0:     0.307 sec done=    464467 (=100.0%) skipped=         0
    -> L=1 0 0 0:     0.969 sec done=   1064557 (=100.0%) skipped=         0
    -> L=1 0 1 0:     1.189 sec done=    608751 (=100.0%) skipped=         0
    -> L=1 1 0 0:     0.527 sec done=    308837 (=100.0%) skipped=         0
    -> L=1 1 1 0:     1.680 sec done=    348843 (=100.0%) skipped=         0
    -> L=1 1 1 1:     0.669 sec done=     48982 (=100.0%) skipped=         0
    -> L=2 0 0 0:     0.066 sec done=     81209 (=100.0%) skipped=         0
    -> L=2 0 1 0:     0.209 sec done=     93421 (=100.0%) skipped=         0
    -> L=2 0 1 1:     0.140 sec done=     27151 (=100.0%) skipped=         0
    -> L=2 0 2 0:     0.006 sec done=      3587 (=100.0%) skipped=         0
    -> L=2 1 0 0:     0.076 sec done=     55311 (=100.0%) skipped=         0
    -> L=2 1 1 0:     0.290 sec done=     63097 (=100.0%) skipped=         0
    -> L=2 1 2 0:     0.027 sec done=      4992 (=100.0%) skipped=         0
    -> L=2 2 0 0:     0.007 sec done=      3531 (=100.0%) skipped=         0
    ->Total SHARK integral loop time =    6.165 sec
    -> Total Integral generation matrix time =    6.397 sec
    -> Number of small integrals   =   8043266
    -> Number of medium integrals  =  10127461
    -> Number of large integrals   =   9574903
    -> Number of MB stored         =       232 MB


SHARK setup successfully completed in   6.7 seconds

Maximum memory used throughout the entire GTOINT-calculation: 49.6 MB
-------------------------------------------------------------------------------
                                 ORCA SCF
-------------------------------------------------------------------------------

------------
SCF SETTINGS
------------
Hamiltonian:
 Ab initio Hamiltonian  Method          .... Hartree-Fock(GTOs)


General Settings:
 Integral files         IntName         .... GS_vib
 Hartree-Fock type      HFTyp           .... RHF
 Total Charge           Charge          ....    0
 Multiplicity           Mult            ....    1
 Number of Electrons    NEL             ....  198
 Basis Dimension        Dim             ....  155
 Nuclear Repulsion      ENuc            ....   2611.9921173075 Eh

Convergence Acceleration:
 DIIS                   CNVDIIS         .... on
   Start iteration      DIISMaxIt       ....    12
   Startup error        DIISStart       ....  0.200000
   # of expansion vecs  DIISMaxEq       ....     5
   Bias factor          DIISBfac        ....   1.050
   Max. coefficient     DIISMaxC        ....  10.000
 Trust-Rad. Augm. Hess. CNVTRAH         .... auto
   Auto Start mean grad. ratio tolernc. ....  1.125000
   Auto Start start iteration           ....    20
   Auto Start num. interpolation iter.  ....    10
   Max. Number of Micro iterations      ....    16
   Max. Number of Macro iterations      .... Maxiter - #DIIS iter
   Number of Davidson start vectors     ....     2
   Converg. threshold I  (grad. norm)   ....   5.000e-05
   Converg. threshold II (energy diff.) ....   1.000e-06
   Grad. Scal. Fac. for Micro threshold ....   0.100
   Minimum threshold for Micro iter.    ....   0.010
   NR start threshold (gradient norm)   ....   0.001
   Initial trust radius                 ....   0.400
   Minimum AH scaling param. (alpha)    ....   1.000
   Maximum AH scaling param. (alpha)    .... 1000.000
   Orbital update algorithm             .... Taylor
   White noise on init. David. guess    .... on
   Maximum white noise                  ....   0.010
   Quad. conv. algorithm                .... NR
 SOSCF                  CNVSOSCF        .... on
   Start iteration      SOSCFMaxIt      ....   150
   Startup grad/error   SOSCFStart      ....  0.003300
 Level Shifting         CNVShift        .... on
   Level shift para.    LevelShift      ....    0.2500
   Turn off err/grad.   ShiftErr        ....    0.0010
 Zerner damping         CNVZerner       .... off
 Static damping         CNVDamp         .... on
   Fraction old density DampFac         ....    0.7000
   Max. Damping (<1)    DampMax         ....    0.9800
   Min. Damping (>=0)   DampMin         ....    0.0000
   Turn off err/grad.   DampErr         ....    0.1000
 Fernandez-Rico         CNVRico         .... off

SCF Procedure:
 Maximum # iterations   MaxIter         ....   125
 SCF integral mode      SCFMode         .... Conventional
 Integral Threshold     Thresh          ....  1.000e-10 Eh
 Primitive CutOff       TCut            ....  1.000e-11 Eh
 Integral Buffer length BufferLength    .... 1048576
 Integral index format  IndFormat       ....     0
 Integral value format  ValFormat       ....     0
 Integral Storage       Thresh          ....  1.000e-10 Eh

Convergence Tolerance:
 Convergence Check Mode ConvCheckMode   .... Total+1el-Energy
 Convergence forced     ConvForced      .... 0
 Energy Change          TolE            ....  1.000e-06 Eh
 1-El. energy change                    ....  1.000e-03 Eh
 Orbital Gradient       TolG            ....  5.000e-05
 Orbital Rotation angle TolX            ....  5.000e-05
 DIIS Error             TolErr          ....  1.000e-06


Diagonalization of the overlap matrix:
Smallest eigenvalue                        ... 1.699e-01
Time for diagonalization                   ...    0.007 sec
Threshold for overlap eigenvalues          ... 1.000e-08
Number of eigenvalues below threshold      ... 0
Time for construction of square roots      ...    0.004 sec
Total time needed                          ...    0.012 sec

--------------------------------
INITIAL GUESS: MINIMAL BASIS EHT
--------------------------------
The minimal basis has 140 functions
EHT matrix was diagonalized
Basis set overlap was calculated now projecting the orbitals
Using GuessMode=FMatrix for the initial guess
C*T matrix was formed
Effective Fockian was calculated
Effective Fockian was diagonalized
Initial density was built
                      ------------------
                      INITIAL GUESS DONE
                      ------------------

 InCore treatment chosen:
   Memory dedicated               ...    1024 MB
   Memory needed                  ...    232 MB
   Number of tiny    integrals    ... 8043266
   Number of small   integrals    ... 10127461
   Number of regular integrals    ... 9574903

--------------
SCF ITERATIONS
--------------
ITER       Energy         Delta-E        Max-DP      RMS-DP      [F,P]     Damp
  0  -2417.5894779917   0.000000000000 0.17228095  0.00467810  0.3466848 0.7000
  1  -2418.1715373024  -0.582059310690 0.14645743  0.00387634  0.2598587 0.7000
                               ***Turning on DIIS***
  2  -2418.5708570365  -0.399319734101 0.09612378  0.00268673  0.1799539 0.7000
  3  -2417.8684607239   0.702396312576 0.05594981  0.00180760  0.1221154 0.7000
  4  -2418.2628995361  -0.394438812192 0.14356203  0.00455010  0.0864647 0.0000
  5  -2419.4909568609  -1.228057324735 0.02179468  0.00057359  0.0126466 0.0000
  6  -2419.4771593311   0.013797529785 0.01219311  0.00032616  0.0035147 0.0000
  7  -2419.4889383613  -0.011779030191 0.00822964  0.00020144  0.0043436 0.0000
                      *** Initiating the SOSCF procedure ***
                           *** Shutting down DIIS ***
                      *** Re-Reading the Fockian ***
                      *** Removing any level shift ***
ITER      Energy       Delta-E        Grad      Rot      Max-DP    RMS-DP
  8  -2419.51020296  -0.0212646016  0.001801  0.001801  0.003722  0.000090
  9  -2419.51411539  -0.0039124224  0.000803  0.001845  0.002171  0.000048
 10  -2419.51412622  -0.0000108345  0.000370  0.002269  0.002986  0.000067
 11  -2419.51413146  -0.0000052401  0.000108  0.000150  0.000446  0.000010
 12  -2419.51413182  -0.0000003615  0.000067  0.000086  0.000115  0.000004
                 **** Energy Check signals convergence ****
              ***Rediagonalizing the Fockian in SOSCF/NRSCF***

               *****************************************************
               *                     SUCCESS                       *
               *           SCF CONVERGED AFTER  13 CYCLES          *
               *****************************************************


----------------
TOTAL SCF ENERGY
----------------

Total Energy       :        -2419.51413189 Eh          -65838.32668 eV

Components:
Nuclear Repulsion  :         2611.99211731 Eh           71075.91894 eV
Electronic Energy  :        -5031.50624920 Eh         -136914.24563 eV
One Electron Energy:        -8536.05112661 Eh         -232277.75993 eV
Two Electron Energy:         3504.54487740 Eh           95363.51430 eV

Virial components:
Potential Energy   :        -4835.63797631 Eh         -131584.39896 eV
Kinetic Energy     :         2416.12384441 Eh           65746.07227 eV
Virial Ratio       :            2.00140319


---------------
SCF CONVERGENCE
---------------

  Last Energy change         ...   -7.2233e-08  Tolerance :   1.0000e-06
  Last MAX-Density change    ...    3.8809e-05  Tolerance :   1.0000e-05
  Last RMS-Density change    ...    1.4704e-06  Tolerance :   1.0000e-06
  Last Orbital Gradient      ...    1.2378e-05  Tolerance :   5.0000e-05
  Last Orbital Rotation      ...    2.3562e-05  Tolerance :   5.0000e-05

             **** THE GBW FILE WAS UPDATED (GS_vib.gbw) ****
             **** DENSITY GS_vib.scfp WAS UPDATED ****
             **** ENERGY FILE WAS UPDATED (GS_vib.en.tmp) ****
             **** THE GBW FILE WAS UPDATED (GS_vib.gbw) ****
             **** DENSITY GS_vib.scfp WAS UPDATED ****
----------------
ORBITAL ENERGIES
----------------

  NO   OCC          E(Eh)            E(eV)
   0   2.0000    -104.129108     -2833.4971
   1   2.0000    -104.111008     -2833.0045
   2   2.0000    -104.110965     -2833.0034
   3   2.0000     -26.033195      -708.3993
   4   2.0000     -26.032364      -708.3766
   5   2.0000     -26.027264      -708.2379
   6   2.0000     -20.472681      -557.0900
   7   2.0000     -15.544948      -422.9995
   8   2.0000     -15.439705      -420.1357
   9   2.0000     -11.509309      -313.1842
  10   2.0000     -11.327799      -308.2451
  11   2.0000     -11.303159      -307.5746
  12   2.0000     -11.302717      -307.5626
  13   2.0000     -11.300629      -307.5058
  14   2.0000     -11.296169      -307.3844
  15   2.0000     -11.290878      -307.2404
  16   2.0000     -11.271612      -306.7162
  17   2.0000     -11.241030      -305.8840
  18   2.0000     -11.239269      -305.8360
  19   2.0000     -11.238316      -305.8101
  20   2.0000     -11.229474      -305.5695
  21   2.0000     -11.212157      -305.0983
  22   2.0000     -11.206671      -304.9490
  23   2.0000     -11.203819      -304.8714
  24   2.0000     -10.551172      -287.1120
  25   2.0000     -10.536549      -286.7141
  26   2.0000     -10.536507      -286.7129
  27   2.0000      -7.985869      -217.3065
  28   2.0000      -7.980968      -217.1732
  29   2.0000      -7.980952      -217.1727
  30   2.0000      -7.970848      -216.8978
  31   2.0000      -7.970799      -216.8965
  32   2.0000      -7.966169      -216.7705
  33   2.0000      -7.966127      -216.7693
  34   2.0000      -7.966118      -216.7691
  35   2.0000      -7.966072      -216.7678
  36   2.0000      -1.695183       -46.1283
  37   2.0000      -1.590232       -43.2724
  38   2.0000      -1.585629       -43.1472
  39   2.0000      -1.511488       -41.1297
  40   2.0000      -1.401875       -38.1470
  41   2.0000      -1.271393       -34.5964
  42   2.0000      -1.209832       -32.9212
  43   2.0000      -1.182859       -32.1872
  44   2.0000      -1.170263       -31.8445
  45   2.0000      -1.132564       -30.8186
  46   2.0000      -1.128483       -30.7076
  47   2.0000      -1.106856       -30.1191
  48   2.0000      -1.056913       -28.7601
  49   2.0000      -1.033631       -28.1265
  50   2.0000      -1.027976       -27.9726
  51   2.0000      -0.994427       -27.0597
  52   2.0000      -0.935212       -25.4484
  53   2.0000      -0.900109       -24.4932
  54   2.0000      -0.864688       -23.5294
  55   2.0000      -0.855789       -23.2872
  56   2.0000      -0.821582       -22.3564
  57   2.0000      -0.813361       -22.1327
  58   2.0000      -0.795472       -21.6459
  59   2.0000      -0.770521       -20.9669
  60   2.0000      -0.760984       -20.7074
  61   2.0000      -0.758926       -20.6514
  62   2.0000      -0.741722       -20.1833
  63   2.0000      -0.726994       -19.7825
  64   2.0000      -0.707817       -19.2607
  65   2.0000      -0.688420       -18.7329
  66   2.0000      -0.685023       -18.6404
  67   2.0000      -0.652809       -17.7638
  68   2.0000      -0.643049       -17.4983
  69   2.0000      -0.640886       -17.4394
  70   2.0000      -0.635467       -17.2919
  71   2.0000      -0.627618       -17.0783
  72   2.0000      -0.624374       -16.9901
  73   2.0000      -0.614860       -16.7312
  74   2.0000      -0.610324       -16.6078
  75   2.0000      -0.594249       -16.1703
  76   2.0000      -0.593043       -16.1375
  77   2.0000      -0.591746       -16.1022
  78   2.0000      -0.586451       -15.9581
  79   2.0000      -0.582461       -15.8496
  80   2.0000      -0.581928       -15.8351
  81   2.0000      -0.575885       -15.6706
  82   2.0000      -0.565226       -15.3806
  83   2.0000      -0.554844       -15.0981
  84   2.0000      -0.545200       -14.8356
  85   2.0000      -0.530478       -14.4350
  86   2.0000      -0.527238       -14.3469
  87   2.0000      -0.513529       -13.9738
  88   2.0000      -0.481285       -13.0964
  89   2.0000      -0.479345       -13.0436
  90   2.0000      -0.477630       -12.9970
  91   2.0000      -0.470294       -12.7974
  92   2.0000      -0.448224       -12.1968
  93   2.0000      -0.438543       -11.9334
  94   2.0000      -0.425664       -11.5829
  95   2.0000      -0.399555       -10.8724
  96   2.0000      -0.393017       -10.6945
  97   2.0000      -0.378073       -10.2879
  98   2.0000      -0.318571        -8.6687
  99   0.0000       0.113917         3.0998
 100   0.0000       0.116880         3.1805
 101   0.0000       0.120553         3.2804
 102   0.0000       0.202725         5.5164
 103   0.0000       0.216563         5.8930
 104   0.0000       0.236713         6.4413
 105   0.0000       0.251326         6.8389
 106   0.0000       0.275007         7.4833
 107   0.0000       0.328270         8.9327
 108   0.0000       0.350107         9.5269
 109   0.0000       0.407490        11.0884
 110   0.0000       0.428768        11.6674
 111   0.0000       0.469891        12.7864
 112   0.0000       0.475933        12.9508
 113   0.0000       0.498431        13.5630
 114   0.0000       0.509181        13.8555
 115   0.0000       0.524739        14.2789
 116   0.0000       0.542419        14.7600
 117   0.0000       0.552785        15.0421
 118   0.0000       0.557647        15.1743
 119   0.0000       0.607674        16.5357
 120   0.0000       0.614564        16.7231
 121   0.0000       0.615934        16.7604
 122   0.0000       0.648570        17.6485
 123   0.0000       0.664458        18.0808
 124   0.0000       0.681173        18.5357
 125   0.0000       0.698593        19.0097
 126   0.0000       0.700591        19.0641
 127   0.0000       0.729467        19.8498
 128   0.0000       0.736140        20.0314
 129   0.0000       0.750035        20.4095
 130   0.0000       0.762114        20.7382
 131   0.0000       0.808335        21.9959
 132   0.0000       0.812277        22.1032
 133   0.0000       0.849011        23.1028
 134   0.0000       0.883173        24.0324
 135   0.0000       0.926809        25.2197
 136   0.0000       0.929085        25.2817
 137   0.0000       0.985328        26.8121
 138   0.0000       0.994485        27.0613
 139   0.0000       1.010085        27.4858
 140   0.0000       1.010648        27.5011
 141   0.0000       1.014619        27.6092
 142   0.0000       1.014690        27.6111
 143   0.0000       1.015404        27.6305
 144   0.0000       1.016902        27.6713
 145   0.0000       1.018321        27.7099
 146   0.0000       1.020340        27.7649
 147   0.0000       1.024875        27.8883
 148   0.0000       1.027476        27.9591
 149   0.0000       1.079676        29.3795
 150   0.0000       1.094507        29.7830
 151   0.0000       1.100586        29.9485
 152   0.0000       1.175339        31.9826
 153   0.0000       1.188471        32.3399
 154   0.0000       1.190116        32.3847

                    ********************************
                    * MULLIKEN POPULATION ANALYSIS *
                    ********************************

-----------------------
MULLIKEN ATOMIC CHARGES
-----------------------
   0 Cl:   -0.096867
   1 C :    0.047666
   2 C :    0.121167
   3 N :   -0.275192
   4 C :    0.134891
   5 C :   -0.382227
   6 C :    0.017093
   7 C :    0.784019
   8 F :   -0.293882
   9 F :   -0.299166
  10 F :   -0.285880
  11 N :   -0.267303
  12 C :    0.218297
  13 C :    0.182078
  14 C :   -0.146797
  15 C :   -0.157708
  16 C :    0.229096
  17 Cl:   -0.081815
  18 O :   -0.371471
  19 C :    0.047589
  20 Cl:   -0.097021
  21 C :   -0.120756
  22 C :   -0.118272
  23 C :   -0.120737
  24 H :    0.155634
  25 H :    0.165991
  26 H :    0.154949
  27 H :    0.177619
  28 H :    0.170627
  29 H :    0.171707
  30 H :    0.164956
  31 H :    0.171715
Sum of atomic charges:   -0.0000000

--------------------------------
MULLIKEN REDUCED ORBITAL CHARGES
--------------------------------
  0 Cls       :     5.916259  s :     5.916259
      pz      :     3.307058  p :    11.137475
      px      :     3.866342
      py      :     3.964075
      dz2     :     0.021436  d :     0.043133
      dxz     :     0.014480
      dyz     :     0.005141
      dx2y2   :     0.001121
      dxy     :     0.000955
  1 C s       :     3.055290  s :     3.055290
      pz      :     0.864278  p :     2.897044
      px      :     1.007160
      py      :     1.025606
  2 C s       :     2.990802  s :     2.990802
      pz      :     0.985723  p :     2.888031
      px      :     0.895261
      py      :     1.007047
  3 N s       :     3.347542  s :     3.347542
      pz      :     1.599374  p :     3.927650
      px      :     1.149626
      py      :     1.178650
  4 C s       :     3.032168  s :     3.032168
      pz      :     0.972937  p :     2.832941
      px      :     1.027790
      py      :     0.832214
  5 C s       :     3.147916  s :     3.147916
      pz      :     1.128129  p :     3.234311
      px      :     1.018012
      py      :     1.088170
  6 C s       :     3.005103  s :     3.005103
      pz      :     1.172288  p :     2.977804
      px      :     0.921078
      py      :     0.884438
  7 C s       :     2.993214  s :     2.993214
      pz      :     0.662866  p :     2.222767
      px      :     0.706629
      py      :     0.853272
  8 F s       :     3.933437  s :     3.933437
      pz      :     1.460310  p :     5.360445
      px      :     1.945626
      py      :     1.954509
  9 F s       :     3.932629  s :     3.932629
      pz      :     1.910467  p :     5.366537
      px      :     1.826236
      py      :     1.629833
 10 F s       :     3.932488  s :     3.932488
      pz      :     1.863668  p :     5.353392
      px      :     1.531908
      py      :     1.957816
 11 N s       :     3.576136  s :     3.576136
      pz      :     1.101137  p :     3.691167
      px      :     1.568385
      py      :     1.021646
 12 C s       :     2.973041  s :     2.973041
      pz      :     1.069076  p :     2.808662
      px      :     0.790284
      py      :     0.949303
 13 C s       :     2.999203  s :     2.999203
      pz      :     1.073701  p :     2.818719
      px      :     0.853812
      py      :     0.891207
 14 C s       :     3.081960  s :     3.081960
      pz      :     1.033838  p :     3.064836
      px      :     1.060842
      py      :     0.970157
 15 C s       :     3.080177  s :     3.080177
      pz      :     1.049056  p :     3.077531
      px      :     0.990361
      py      :     1.038114
 16 C s       :     3.015823  s :     3.015823
      pz      :     1.090879  p :     2.755081
      px      :     0.930510
      py      :     0.733693
 17 Cls       :     5.911256  s :     5.911256
      pz      :     3.925370  p :    11.124459
      px      :     3.680520
      py      :     3.518569
      dz2     :     0.007330  d :     0.046101
      dxz     :     0.004827
      dyz     :     0.006710
      dx2y2   :     0.003961
      dxy     :     0.023272
 18 O s       :     3.759032  s :     3.759032
      pz      :     1.711624  p :     4.612439
      px      :     1.649606
      py      :     1.251209
 19 C s       :     3.055290  s :     3.055290
      pz      :     0.907320  p :     2.897121
      px      :     0.993279
      py      :     0.996522
 20 Cls       :     5.916245  s :     5.916245
      pz      :     3.531392  p :    11.137656
      px      :     3.796463
      py      :     3.809801
      dz2     :     0.006363  d :     0.043120
      dxz     :     0.015426
      dyz     :     0.013324
      dx2y2   :     0.002918
      dxy     :     0.005089
 21 C s       :     3.073518  s :     3.073518
      pz      :     1.082029  p :     3.047238
      px      :     0.981207
      py      :     0.984002
 22 C s       :     3.077835  s :     3.077835
      pz      :     0.986160  p :     3.040437
      px      :     1.056086
      py      :     0.998192
 23 C s       :     3.073518  s :     3.073518
      pz      :     1.053447  p :     3.047218
      px      :     0.990173
      py      :     1.003599
 24 H s       :     0.844366  s :     0.844366
 25 H s       :     0.834009  s :     0.834009
 26 H s       :     0.845051  s :     0.845051
 27 H s       :     0.822381  s :     0.822381
 28 H s       :     0.829373  s :     0.829373
 29 H s       :     0.828293  s :     0.828293
 30 H s       :     0.835044  s :     0.835044
 31 H s       :     0.828285  s :     0.828285


                     *******************************
                     * LOEWDIN POPULATION ANALYSIS *
                     *******************************

----------------------
LOEWDIN ATOMIC CHARGES
----------------------
   0 Cl:   -0.062732
   1 C :    0.035204
   2 C :    0.065084
   3 N :   -0.097183
   4 C :    0.094412
   5 C :   -0.245936
   6 C :   -0.057411
   7 C :    0.618308
   8 F :   -0.229028
   9 F :   -0.232850
  10 F :   -0.219152
  11 N :   -0.196669
  12 C :    0.123322
  13 C :    0.122238
  14 C :   -0.109519
  15 C :   -0.128456
  16 C :    0.148178
  17 Cl:   -0.043835
  18 O :   -0.220001
  19 C :    0.035122
  20 Cl:   -0.062870
  21 C :   -0.080477
  22 C :   -0.060753
  23 C :   -0.080455
  24 H :    0.105263
  25 H :    0.112821
  26 H :    0.104733
  27 H :    0.118375
  28 H :    0.113222
  29 H :    0.112070
  30 H :    0.106902
  31 H :    0.112076

-------------------------------
LOEWDIN REDUCED ORBITAL CHARGES
-------------------------------
  0 Cls       :     5.868960  s :     5.868960
      pz      :     3.314155  p :    11.140428
      px      :     3.865639
      py      :     3.960635
      dz2     :     0.025295  d :     0.053344
      dxz     :     0.017622
      dyz     :     0.007461
      dx2y2   :     0.001560
      dxy     :     0.001406
  1 C s       :     2.962179  s :     2.962179
      pz      :     0.927199  p :     3.002618
      px      :     1.038184
      py      :     1.037236
  2 C s       :     2.920956  s :     2.920956
      pz      :     1.039239  p :     3.013960
      px      :     0.945995
      py      :     1.028726
  3 N s       :     3.159861  s :     3.159861
      pz      :     1.586177  p :     3.937322
      px      :     1.160973
      py      :     1.190172
  4 C s       :     2.954299  s :     2.954299
      pz      :     0.987579  p :     2.951290
      px      :     1.063259
      py      :     0.900452
  5 C s       :     2.976460  s :     2.976460
      pz      :     1.122149  p :     3.269476
      px      :     1.048810
      py      :     1.098517
  6 C s       :     2.947978  s :     2.947978
      pz      :     1.173625  p :     3.109433
      px      :     0.987340
      py      :     0.948467
  7 C s       :     2.960456  s :     2.960456
      pz      :     0.740354  p :     2.421236
      px      :     0.779452
      py      :     0.901430
  8 F s       :     3.856515  s :     3.856515
      pz      :     1.476091  p :     5.372513
      px      :     1.943305
      py      :     1.953117
  9 F s       :     3.854953  s :     3.854953
      pz      :     1.909196  p :     5.377897
      px      :     1.828836
      py      :     1.639865
 10 F s       :     3.853394  s :     3.853394
      pz      :     1.864207  p :     5.365758
      px      :     1.545161
      py      :     1.956390
 11 N s       :     3.415680  s :     3.415680
      pz      :     1.107568  p :     3.780989
      px      :     1.597325
      py      :     1.076096
 12 C s       :     2.926871  s :     2.926871
      pz      :     1.076778  p :     2.949808
      px      :     0.872258
      py      :     1.000772
 13 C s       :     2.935106  s :     2.935106
      pz      :     1.078175  p :     2.942656
      px      :     0.918162
      py      :     0.946319
 14 C s       :     2.970280  s :     2.970280
      pz      :     1.040028  p :     3.139239
      px      :     1.081069
      py      :     1.018142
 15 C s       :     2.971047  s :     2.971047
      pz      :     1.056258  p :     3.157409
      px      :     1.045860
      py      :     1.055291
 16 C s       :     2.956743  s :     2.956743
      pz      :     1.096051  p :     2.895079
      px      :     0.983739
      py      :     0.815289
 17 Cls       :     5.861654  s :     5.861654
      pz      :     3.921039  p :    11.126006
      px      :     3.682184
      py      :     3.522783
      dz2     :     0.008587  d :     0.056174
      dxz     :     0.006241
      dyz     :     0.008654
      dx2y2   :     0.006138
      dxy     :     0.026555
 18 O s       :     3.593556  s :     3.593556
      pz      :     1.703202  p :     4.626445
      px      :     1.654463
      py      :     1.268780
 19 C s       :     2.962181  s :     2.962181
      pz      :     0.965310  p :     3.002697
      px      :     1.025951
      py      :     1.011436
 20 Cls       :     5.868949  s :     5.868949
      pz      :     3.535711  p :    11.140593
      px      :     3.796626
      py      :     3.808256
      dz2     :     0.009229  d :     0.053328
      dxz     :     0.018013
      dyz     :     0.015619
      dx2y2   :     0.004052
      dxy     :     0.006415
 21 C s       :     2.961165  s :     2.961165
      pz      :     1.089361  p :     3.119312
      px      :     1.024029
      py      :     1.005921
 22 C s       :     2.959571  s :     2.959571
      pz      :     1.039923  p :     3.101182
      px      :     1.058673
      py      :     1.002586
 23 C s       :     2.961165  s :     2.961165
      pz      :     1.076371  p :     3.119290
      px      :     1.028173
      py      :     1.014745
 24 H s       :     0.894737  s :     0.894737
 25 H s       :     0.887179  s :     0.887179
 26 H s       :     0.895267  s :     0.895267
 27 H s       :     0.881625  s :     0.881625
 28 H s       :     0.886778  s :     0.886778
 29 H s       :     0.887930  s :     0.887930
 30 H s       :     0.893098  s :     0.893098
 31 H s       :     0.887924  s :     0.887924


                      *****************************
                      * MAYER POPULATION ANALYSIS *
                      *****************************

  NA   - Mulliken gross atomic population
  ZA   - Total nuclear charge
  QA   - Mulliken gross atomic charge
  VA   - Mayer's total valence
  BVA  - Mayer's bonded valence
  FA   - Mayer's free valence

  ATOM       NA         ZA         QA         VA         BVA        FA
  0 Cl    17.0969    17.0000    -0.0969     1.1097     1.1097     0.0000
  1 C      5.9523     6.0000     0.0477     3.9685     3.9685     0.0000
  2 C      5.8788     6.0000     0.1212     3.9568     3.9568    -0.0000
  3 N      7.2752     7.0000    -0.2752     3.4421     3.4421    -0.0000
  4 C      5.8651     6.0000     0.1349     3.9411     3.9411    -0.0000
  5 C      6.3822     6.0000    -0.3822     3.9223     3.9223    -0.0000
  6 C      5.9829     6.0000     0.0171     3.9375     3.9375    -0.0000
  7 C      5.2160     6.0000     0.7840     3.6748     3.6748    -0.0000
  8 F      9.2939     9.0000    -0.2939     1.0226     1.0226    -0.0000
  9 F      9.2992     9.0000    -0.2992     1.0167     1.0167    -0.0000
 10 F      9.2859     9.0000    -0.2859     1.0316     1.0316    -0.0000
 11 N      7.2673     7.0000    -0.2673     3.0366     3.0366     0.0000
 12 C      5.7817     6.0000     0.2183     3.9350     3.9350    -0.0000
 13 C      5.8179     6.0000     0.1821     3.8723     3.8723     0.0000
 14 C      6.1468     6.0000    -0.1468     3.9659     3.9659    -0.0000
 15 C      6.1577     6.0000    -0.1577     3.9653     3.9653    -0.0000
 16 C      5.7709     6.0000     0.2291     3.8638     3.8638    -0.0000
 17 Cl    17.0818    17.0000    -0.0818     1.1230     1.1230    -0.0000
 18 O      8.3715     8.0000    -0.3715     2.2472     2.2472    -0.0000
 19 C      5.9524     6.0000     0.0476     3.9685     3.9685     0.0000
 20 Cl    17.0970    17.0000    -0.0970     1.1096     1.1096     0.0000
 21 C      6.1208     6.0000    -0.1208     3.9700     3.9700    -0.0000
 22 C      6.1183     6.0000    -0.1183     3.9731     3.9731    -0.0000
 23 C      6.1207     6.0000    -0.1207     3.9700     3.9700     0.0000
 24 H      0.8444     1.0000     0.1556     0.9758     0.9758    -0.0000
 25 H      0.8340     1.0000     0.1660     0.9724     0.9724     0.0000
 26 H      0.8451     1.0000     0.1549     0.9760     0.9760     0.0000
 27 H      0.8224     1.0000     0.1776     0.9685     0.9685    -0.0000
 28 H      0.8294     1.0000     0.1706     0.9709     0.9709    -0.0000
 29 H      0.8283     1.0000     0.1717     0.9705     0.9705     0.0000
 30 H      0.8350     1.0000     0.1650     0.9728     0.9728     0.0000
 31 H      0.8283     1.0000     0.1717     0.9705     0.9705     0.0000

  Mayer bond orders larger than 0.100000
B(  0-Cl,  1-C ) :   1.0146 B(  1-C ,  2-C ) :   1.3905 B(  1-C , 21-C ) :   0.1059
B(  1-C , 23-C ) :   1.4209 B(  2-C ,  3-N ) :   0.9788 B(  2-C , 19-C ) :   1.3905
B(  2-C , 22-C ) :   0.1071 B(  3-N ,  4-C ) :   1.1585 B(  3-N , 12-C ) :   1.1027
B(  4-C ,  5-C ) :   1.0216 B(  4-C ,  6-C ) :   1.5789 B(  5-C , 24-H ) :   0.9582
B(  5-C , 25-H ) :   0.9627 B(  5-C , 26-H ) :   0.9584 B(  6-C ,  7-C ) :   0.9467
B(  6-C , 11-N ) :   1.2208 B(  7-C ,  8-F ) :   0.8969 B(  7-C ,  9-F ) :   0.8962
B(  7-C , 10-F ) :   0.9118 B( 11-N , 12-C ) :   1.6140 B( 12-C , 13-C ) :   1.0450
B( 13-C , 14-C ) :   1.6512 B( 13-C , 16-C ) :   0.1113 B( 13-C , 18-O ) :   1.0156
B( 14-C , 15-C ) :   1.2162 B( 14-C , 27-H ) :   0.9550 B( 15-C , 16-C ) :   1.6612
B( 15-C , 28-H ) :   0.9578 B( 16-C , 17-Cl) :   1.0216 B( 16-C , 18-O ) :   1.0308
B( 19-C , 20-Cl) :   1.0146 B( 19-C , 21-C ) :   1.4208 B( 19-C , 23-C ) :   0.1059
B( 21-C , 22-C ) :   1.4447 B( 21-C , 29-H ) :   0.9525 B( 22-C , 23-C ) :   1.4447
B( 22-C , 30-H ) :   0.9538 B( 23-C , 31-H ) :   0.9525

-------
TIMINGS
-------

Total SCF time: 0 days 0 hours 0 min 11 sec

Total time                  ....      11.419 sec
Sum of individual times     ....      10.771 sec  ( 94.3%)

Fock matrix formation       ....      10.409 sec  ( 91.2%)
Diagonalization             ....       0.078 sec  (  0.7%)
Density matrix formation    ....       0.009 sec  (  0.1%)
Population analysis         ....       0.086 sec  (  0.8%)
Initial guess               ....       0.054 sec  (  0.5%)
Orbital Transformation      ....       0.000 sec  (  0.0%)
Orbital Orthonormalization  ....       0.000 sec  (  0.0%)
DIIS solution               ....       0.089 sec  (  0.8%)
SOSCF solution              ....       0.046 sec  (  0.4%)

Maximum memory used throughout the entire SCF-calculation: 478.9 MB


-------------------------------------------------------------------------------
                          DFT DISPERSION CORRECTION

                              DFTD3 V3.1  Rev 1
                          USING Becke-Johnson damping
-------------------------------------------------------------------------------
Hartree-Fock is recognized
Active option DFTDOPT                   ...         4

molecular C6(AA) [au] = 17899.204686


            DFT-D V3
 parameters
 using HF/MINIX parameters
 s6 scaling factor         :     1.0000
 a1 scaling factor         :     0.4171
 s8 scaling factor         :     0.8777
 a2 scaling factor         :     2.9149
 ad hoc parameters k1-k3   :    16.0000     1.3333    -4.0000

 Edisp/kcal,au: -121.625529474607  -0.193822597949
 E6   /kcal   : -66.118078254
 E8   /kcal   : -55.507451221
 % E8         :  45.637993488

-------------------------   ----------------
Dispersion correction           -0.193822598
-------------------------   ----------------

------------------   -----------------
gCP+bas correction        -0.242492120
------------------   -----------------
----------------------------   ----------------
Total correction to HF/MINIX       -0.436314718
----------------------------   ----------------


-------------------------   --------------------
FINAL SINGLE POINT ENERGY     -2419.950446611861
-------------------------   --------------------


                            ***************************************
                            *     ORCA property calculations      *
                            ***************************************

                                    ---------------------
                                    Active property flags
                                    ---------------------
   (+) Dipole Moment


------------------------------------------------------------------------------
                       ORCA ELECTRIC PROPERTIES CALCULATION
------------------------------------------------------------------------------

Dipole Moment Calculation                       ... on
Quadrupole Moment Calculation                   ... off
Polarizability Calculation                      ... off
GBWName                                         ... GS_vib.gbw
Electron density                                ... GS_vib.scfp
The origin for moment calculation is the CENTER OF MASS  = ( 2.706165,  0.076188 -0.024544)

-------------
DIPOLE MOMENT
-------------
                                X             Y             Z
Electronic contribution:     10.08581       4.57002      -1.71853
Nuclear contribution   :    -12.20624      -5.83129       2.15641
                        -----------------------------------------
Total Dipole Moment    :     -2.12043      -1.26127       0.43788
                        -----------------------------------------
Magnitude (a.u.)       :      2.50575
Magnitude (Debye)      :      6.36911



--------------------
Rotational spectrum
--------------------

Rotational constants in cm-1:     0.009173     0.004715     0.004094
Rotational constants in MHz :   275.006987   141.345955   122.733485

 Dipole components along the rotational axes:
x,y,z [a.u.] :    -1.963065    -1.557281     0.005427
x,y,z [Debye]:    -4.989715    -3.958294     0.013795



-------------------------------------------------------------------------------
                               ORCA SCF HESSIAN
-------------------------------------------------------------------------------



WARNING: Conventional/SemiDirect RunMode not available for Analytical Frequencies
  ===> : Switching RunMode to Direct


                   --------- SHARK INITIALIZATION DONE ---------

Hessian of the Hartree-Fock SCF energy:
Hartree-Fock type                                ... RHF
Number of operators                              ...    1
Number of atoms                                  ...   32
Basis set dimensions                             ...  155
Integral neglect threshold                       ... 1.0e-10
Integral primitive cutoff                        ... 1.0e-11

Nuclear repulsion Hessian  (SHARK)               ... done   (      0.0 sec)

----------------------------------------------
Forming right-hand sides of CP-SCF equations     ...
----------------------------------------------
One electron integral derivatives  (SHARK)       ... done   (      0.7 sec)
Transforming the overlap derivative matrices     ... done   (      0.2 sec)
Making the Q(x) pseudodensities                  ... done   (      0.2 sec)
Adding the E*S(x)*S(y) terms to the Hessian      ... done   (      0.3 sec)
Calculating energy weighted overlap derivatives  ... done   (      1.6 sec)
Two electron integral derivatives (SHARK)        ... done   (     39.2 sec)
tr(F(y)Q(x)) contribution to the Hessian         ... done   (      0.0 sec)
Response fock operator R(S(x)) (SHARK)           ... done   (    114.7 sec)
tr(F(y)S(x)) contribution to the Hessian         ... done   (      0.1 sec)
Transforming and finalizing RHSs                 ... done   (      0.3 sec)

----------------------------------------------
Solving the CP-SCF equations                     ...
----------------------------------------------
     CP-SCF ITERATION   0:   1.1586e-01 ( 203.6 sec   0/ 96 done)
     CP-SCF ITERATION   1:   4.6854e-02 ( 183.2 sec   0/ 96 done)
     CP-SCF ITERATION   2:   1.6532e-02 ( 170.9 sec   8/ 96 done)
     CP-SCF ITERATION   3:   4.6088e-03 ( 150.8 sec  37/ 96 done)
     CP-SCF ITERATION   4:   1.6669e-03 (  88.3 sec  74/ 96 done)
     CP-SCF ITERATION   5:   6.3268e-04 (  22.7 sec  96/ 96 done)
                    *** THE CP-SCF HAS CONVERGED ***

                                                 ... done   (    819.9 sec)
Forming perturbed density Hessian contributions  ... done   (      0.1 sec)
2nd integral derivative contribs (SHARK)         ... done   (    158.4 sec)
Dispersion correction in the Hessian             ... done   (     33.2 sec)
gCP correction in the Hessian                    ... done   (      0.4 sec)
Dipole derivatives                               ... (center of mass:  2.706165,  0.076188 -0.024544)done   (      0.2 sec)

Total SCF Hessian time: 0 days 0 hours 19 min 30 sec

Writing the Hessian file to the disk             ... done


Maximum memory used throughout the entire SCFHESS-calculation: 151.9 MB

-----------------------
VIBRATIONAL FREQUENCIES
-----------------------

Scaling factor for frequencies =  1.000000000  (already applied!)

   0:         0.00 cm**-1
   1:         0.00 cm**-1
   2:         0.00 cm**-1
   3:         0.00 cm**-1
   4:         0.00 cm**-1
   5:         0.00 cm**-1
   6:        13.52 cm**-1
   7:        19.28 cm**-1
   8:        23.37 cm**-1
   9:        41.81 cm**-1
  10:        47.63 cm**-1
  11:        66.61 cm**-1
  12:        82.70 cm**-1
  13:       101.19 cm**-1
  14:       108.86 cm**-1
  15:       128.87 cm**-1
  16:       144.78 cm**-1
  17:       172.30 cm**-1
  18:       182.28 cm**-1
  19:       231.82 cm**-1
  20:       235.80 cm**-1
  21:       271.29 cm**-1
  22:       283.40 cm**-1
  23:       295.66 cm**-1
  24:       334.98 cm**-1
  25:       344.63 cm**-1
  26:       370.41 cm**-1
  27:       371.70 cm**-1
  28:       414.77 cm**-1
  29:       436.00 cm**-1
  30:       452.57 cm**-1
  31:       470.42 cm**-1
  32:       529.32 cm**-1
  33:       536.82 cm**-1
  34:       563.23 cm**-1
  35:       586.30 cm**-1
  36:       611.04 cm**-1
  37:       617.61 cm**-1
  38:       619.34 cm**-1
  39:       709.85 cm**-1
  40:       720.97 cm**-1
  41:       745.22 cm**-1
  42:       758.00 cm**-1
  43:       796.84 cm**-1
  44:       830.79 cm**-1
  45:       838.39 cm**-1
  46:       853.58 cm**-1
  47:       907.17 cm**-1
  48:       910.54 cm**-1
  49:       954.21 cm**-1
  50:      1007.39 cm**-1
  51:      1044.32 cm**-1
  52:      1078.25 cm**-1
  53:      1094.04 cm**-1
  54:      1110.97 cm**-1
  55:      1126.39 cm**-1
  56:      1135.44 cm**-1
  57:      1136.44 cm**-1
  58:      1159.51 cm**-1
  59:      1193.30 cm**-1
  60:      1205.67 cm**-1
  61:      1215.98 cm**-1
  62:      1232.73 cm**-1
  63:      1286.54 cm**-1
  64:      1295.47 cm**-1
  65:      1307.06 cm**-1
  66:      1317.84 cm**-1
  67:      1338.28 cm**-1
  68:      1369.69 cm**-1
  69:      1383.33 cm**-1
  70:      1419.69 cm**-1
  71:      1426.65 cm**-1
  72:      1452.64 cm**-1
  73:      1517.50 cm**-1
  74:      1524.42 cm**-1
  75:      1553.78 cm**-1
  76:      1601.43 cm**-1
  77:      1635.85 cm**-1
  78:      1641.78 cm**-1
  79:      1680.05 cm**-1
  80:      1702.25 cm**-1
  81:      1705.46 cm**-1
  82:      1733.15 cm**-1
  83:      1775.45 cm**-1
  84:      1807.06 cm**-1
  85:      1817.64 cm**-1
  86:      1833.91 cm**-1
  87:      1870.71 cm**-1
  88:      3536.65 cm**-1
  89:      3651.99 cm**-1
  90:      3678.09 cm**-1
  91:      3680.47 cm**-1
  92:      3691.38 cm**-1
  93:      3701.78 cm**-1
  94:      3722.30 cm**-1
  95:      3739.76 cm**-1


------------
NORMAL MODES
------------

These modes are the Cartesian displacements weighted by the diagonal matrix
M(i,i)=1/sqrt(m[i]) where m[i] is the mass of the displaced atom
Thus, these vectors are normalized but *not* orthogonal

                  0          1          2          3          4          5
      0       0.000000   0.000000   0.000000   0.000000   0.000000   0.000000
      1       0.000000   0.000000   0.000000   0.000000   0.000000   0.000000
      2       0.000000   0.000000   0.000000   0.000000   0.000000   0.000000
      3       0.000000   0.000000   0.000000   0.000000   0.000000   0.000000
      4       0.000000   0.000000   0.000000   0.000000   0.000000   0.000000
      5       0.000000   0.000000   0.000000   0.000000   0.000000   0.000000
      6       0.000000   0.000000   0.000000   0.000000   0.000000   0.000000
      7       0.000000   0.000000   0.000000   0.000000   0.000000   0.000000
      8       0.000000   0.000000   0.000000   0.000000   0.000000   0.000000
      9       0.000000   0.000000   0.000000   0.000000   0.000000   0.000000
     10       0.000000   0.000000   0.000000   0.000000   0.000000   0.000000
     11       0.000000   0.000000   0.000000   0.000000   0.000000   0.000000
     12       0.000000   0.000000   0.000000   0.000000   0.000000   0.000000
     13       0.000000   0.000000   0.000000   0.000000   0.000000   0.000000
     14       0.000000   0.000000   0.000000   0.000000   0.000000   0.000000
     15       0.000000   0.000000   0.000000   0.000000   0.000000   0.000000
     16       0.000000   0.000000   0.000000   0.000000   0.000000   0.000000
     17       0.000000   0.000000   0.000000   0.000000   0.000000   0.000000
     18       0.000000   0.000000   0.000000   0.000000   0.000000   0.000000
     19       0.000000   0.000000   0.000000   0.000000   0.000000   0.000000
     20       0.000000   0.000000   0.000000   0.000000   0.000000   0.000000
     21       0.000000   0.000000   0.000000   0.000000   0.000000   0.000000
     22       0.000000   0.000000   0.000000   0.000000   0.000000   0.000000
     23       0.000000   0.000000   0.000000   0.000000   0.000000   0.000000
     24       0.000000   0.000000   0.000000   0.000000   0.000000   0.000000
     25       0.000000   0.000000   0.000000   0.000000   0.000000   0.000000
     26       0.000000   0.000000   0.000000   0.000000   0.000000   0.000000
     27       0.000000   0.000000   0.000000   0.000000   0.000000   0.000000
     28       0.000000   0.000000   0.000000   0.000000   0.000000   0.000000
     29       0.000000   0.000000   0.000000   0.000000   0.000000   0.000000
     30       0.000000   0.000000   0.000000   0.000000   0.000000   0.000000
     31       0.000000   0.000000   0.000000   0.000000   0.000000   0.000000
     32       0.000000   0.000000   0.000000   0.000000   0.000000   0.000000
     33       0.000000   0.000000   0.000000   0.000000   0.000000   0.000000
     34       0.000000   0.000000   0.000000   0.000000   0.000000   0.000000
     35       0.000000   0.000000   0.000000   0.000000   0.000000   0.000000
     36       0.000000   0.000000   0.000000   0.000000   0.000000   0.000000
     37       0.000000   0.000000   0.000000   0.000000   0.000000   0.000000
     38       0.000000   0.000000   0.000000   0.000000   0.000000   0.000000
     39       0.000000   0.000000   0.000000   0.000000   0.000000   0.000000
     40       0.000000   0.000000   0.000000   0.000000   0.000000   0.000000
     41       0.000000   0.000000   0.000000   0.000000   0.000000   0.000000
     42       0.000000   0.000000   0.000000   0.000000   0.000000   0.000000
     43       0.000000   0.000000   0.000000   0.000000   0.000000   0.000000
     44       0.000000   0.000000   0.000000   0.000000   0.000000   0.000000
     45       0.000000   0.000000   0.000000   0.000000   0.000000   0.000000
     46       0.000000   0.000000   0.000000   0.000000   0.000000   0.000000
     47       0.000000   0.000000   0.000000   0.000000   0.000000   0.000000
     48       0.000000   0.000000   0.000000   0.000000   0.000000   0.000000
     49       0.000000   0.000000   0.000000   0.000000   0.000000   0.000000
     50       0.000000   0.000000   0.000000   0.000000   0.000000   0.000000
     51       0.000000   0.000000   0.000000   0.000000   0.000000   0.000000
     52       0.000000   0.000000   0.000000   0.000000   0.000000   0.000000
     53       0.000000   0.000000   0.000000   0.000000   0.000000   0.000000
     54       0.000000   0.000000   0.000000   0.000000   0.000000   0.000000
     55       0.000000   0.000000   0.000000   0.000000   0.000000   0.000000
     56       0.000000   0.000000   0.000000   0.000000   0.000000   0.000000
     57       0.000000   0.000000   0.000000   0.000000   0.000000   0.000000
     58       0.000000   0.000000   0.000000   0.000000   0.000000   0.000000
     59       0.000000   0.000000   0.000000   0.000000   0.000000   0.000000
     60       0.000000   0.000000   0.000000   0.000000   0.000000   0.000000
     61       0.000000   0.000000   0.000000   0.000000   0.000000   0.000000
     62       0.000000   0.000000   0.000000   0.000000   0.000000   0.000000
     63       0.000000   0.000000   0.000000   0.000000   0.000000   0.000000
     64       0.000000   0.000000   0.000000   0.000000   0.000000   0.000000
     65       0.000000   0.000000   0.000000   0.000000   0.000000   0.000000
     66       0.000000   0.000000   0.000000   0.000000   0.000000   0.000000
     67       0.000000   0.000000   0.000000   0.000000   0.000000   0.000000
     68       0.000000   0.000000   0.000000   0.000000   0.000000   0.000000
     69       0.000000   0.000000   0.000000   0.000000   0.000000   0.000000
     70       0.000000   0.000000   0.000000   0.000000   0.000000   0.000000
     71       0.000000   0.000000   0.000000   0.000000   0.000000   0.000000
     72       0.000000   0.000000   0.000000   0.000000   0.000000   0.000000
     73       0.000000   0.000000   0.000000   0.000000   0.000000   0.000000
     74       0.000000   0.000000   0.000000   0.000000   0.000000   0.000000
     75       0.000000   0.000000   0.000000   0.000000   0.000000   0.000000
     76       0.000000   0.000000   0.000000   0.000000   0.000000   0.000000
     77       0.000000   0.000000   0.000000   0.000000   0.000000   0.000000
     78       0.000000   0.000000   0.000000   0.000000   0.000000   0.000000
     79       0.000000   0.000000   0.000000   0.000000   0.000000   0.000000
     80       0.000000   0.000000   0.000000   0.000000   0.000000   0.000000
     81       0.000000   0.000000   0.000000   0.000000   0.000000   0.000000
     82       0.000000   0.000000   0.000000   0.000000   0.000000   0.000000
     83       0.000000   0.000000   0.000000   0.000000   0.000000   0.000000
     84       0.000000   0.000000   0.000000   0.000000   0.000000   0.000000
     85       0.000000   0.000000   0.000000   0.000000   0.000000   0.000000
     86       0.000000   0.000000   0.000000   0.000000   0.000000   0.000000
     87       0.000000   0.000000   0.000000   0.000000   0.000000   0.000000
     88       0.000000   0.000000   0.000000   0.000000   0.000000   0.000000
     89       0.000000   0.000000   0.000000   0.000000   0.000000   0.000000
     90       0.000000   0.000000   0.000000   0.000000   0.000000   0.000000
     91       0.000000   0.000000   0.000000   0.000000   0.000000   0.000000
     92       0.000000   0.000000   0.000000   0.000000   0.000000   0.000000
     93       0.000000   0.000000   0.000000   0.000000   0.000000   0.000000
     94       0.000000   0.000000   0.000000   0.000000   0.000000   0.000000
     95       0.000000   0.000000   0.000000   0.000000   0.000000   0.000000
                  6          7          8          9         10         11
      0      -0.149317   0.055164   0.014880  -0.209044   0.072452  -0.130208
      1       0.254993  -0.004874   0.078455  -0.157410  -0.025058   0.134436
      2      -0.092271  -0.032508  -0.050212  -0.090465   0.005086  -0.029500
      3      -0.068152   0.024819   0.005161  -0.086751   0.099167  -0.028467
      4       0.110419  -0.004670   0.024534  -0.066146  -0.079452  -0.019412
      5      -0.066073  -0.044975  -0.056518  -0.035307   0.013586   0.004347
      6      -0.002382   0.006289  -0.002559  -0.004978   0.061247  -0.062395
      7      -0.008958  -0.006988  -0.007996  -0.027280  -0.022492   0.039630
      8      -0.038304  -0.031765  -0.032427  -0.113697   0.003524  -0.008038
      9      -0.001704   0.011591  -0.001695  -0.009829   0.031914  -0.076554
     10      -0.006535  -0.008165  -0.001092  -0.046013   0.024494   0.064285
     11      -0.027923  -0.009590  -0.007579  -0.193403  -0.004725  -0.013576
     12      -0.004106   0.018530  -0.000321  -0.006698   0.013266  -0.027891
     13      -0.016114  -0.012071   0.009220  -0.036368   0.023221   0.063518
     14      -0.068874  -0.016938   0.035421  -0.150586  -0.004703  -0.011358
     15      -0.006897   0.035308   0.000819  -0.008724  -0.000070   0.010603
     16      -0.029855   0.004824   0.022219  -0.051675   0.005490   0.118263
     17      -0.130836  -0.049930   0.106746  -0.228801  -0.000233  -0.012285
     18      -0.001690   0.020459  -0.002590   0.000592   0.011153  -0.016570
     19      -0.006705  -0.012745   0.001633  -0.007898   0.039367   0.013274
     20      -0.028610   0.003683  -0.000982  -0.027272  -0.009277  -0.007382
     21      -0.003193  -0.012925   0.003324   0.007898  -0.015152   0.086397
     22      -0.011316   0.005856   0.006402   0.039848   0.052976  -0.039803
     23      -0.048483   0.004656   0.027687   0.157693  -0.014043   0.004188
     24       0.008958  -0.505021   0.039338   0.090121  -0.021225   0.111833
     25      -0.037729   0.272296   0.015787   0.206973   0.054304  -0.049046
     26      -0.049589  -0.034967   0.033599   0.186248  -0.014806   0.006637
     27      -0.011107   0.213667  -0.009393  -0.030261  -0.038378   0.184362
     28      -0.005222  -0.024665   0.001506  -0.017468   0.038864   0.021444
     29      -0.077740   0.483355   0.017670   0.247232  -0.015690   0.006626
     30      -0.009191   0.200056  -0.011422  -0.029909  -0.015540   0.089851
     31       0.004723  -0.204234   0.005629  -0.016006   0.082704  -0.159532
     32      -0.038054  -0.433391   0.060452   0.245671  -0.017002   0.013471
     33       0.002375   0.017168  -0.005726   0.002615   0.027611  -0.061685
     34       0.008744  -0.008641  -0.012836  -0.000235   0.046888  -0.011226
     35       0.037920   0.024179  -0.064366   0.004737  -0.011438  -0.006213
     36       0.002346   0.011750  -0.005078  -0.003301   0.038242  -0.093817
     37       0.008991  -0.007357  -0.013975  -0.021716   0.038379   0.020161
     38       0.038973   0.016955  -0.066976  -0.087961  -0.008824  -0.009869
     39       0.006661   0.006482  -0.007539  -0.002748  -0.002677  -0.087766
     40       0.025826  -0.003987  -0.026415  -0.014043   0.028812   0.022658
     41       0.111087   0.037286  -0.121122  -0.053447  -0.004834  -0.005108
     42       0.015106   0.004470  -0.020964  -0.000915  -0.047384  -0.056315
     43       0.059214  -0.005367  -0.080154  -0.004269  -0.053758   0.082706
     44       0.253740   0.057951  -0.353447  -0.001629   0.015740  -0.003482
     45       0.016032  -0.001607  -0.014337  -0.000186  -0.148707   0.014498
     46       0.061988   0.000521  -0.055479   0.009542  -0.035209   0.071222
     47       0.265772   0.076895  -0.246940   0.055470   0.015792   0.001336
     48       0.007971  -0.002635   0.002582  -0.001637  -0.156022   0.018937
     49       0.029805   0.004881   0.011299   0.006928   0.058400   0.003491
     50       0.128429   0.065912   0.041322   0.033374  -0.005157   0.002534
     51       0.004293  -0.008818   0.019305  -0.001465  -0.279607   0.102913
     52       0.014311   0.013222   0.076011   0.021634   0.152930  -0.061610
     53       0.062523   0.077801   0.320250   0.086496  -0.021559   0.011671
     54       0.002065   0.002195   0.006882  -0.003297  -0.062578  -0.046117
[...]
     62      -0.000040  -0.000003  -0.000018   0.000049  -0.000002   0.000004
     63       0.017990  -0.000608  -0.023464  -0.015430   0.000220  -0.000271
     64       0.003735  -0.000156  -0.003083  -0.000703   0.000014  -0.000013
     65      -0.038564   0.001170   0.059066   0.045600  -0.000639   0.000774
     66      -0.055088   0.002822  -0.000510  -0.053369   0.000734  -0.000867
     67      -0.032311   0.001651  -0.001485  -0.031218   0.000430  -0.000505
     68       0.010996  -0.000562  -0.005921   0.010628  -0.000146   0.000172
     69       0.022108  -0.000730   0.030057  -0.020619   0.000292  -0.000357
     70       0.019928  -0.000641   0.028448  -0.020569   0.000291  -0.000347
     71       0.030350  -0.000894   0.048395  -0.038497   0.000536  -0.000648
     72      -0.006349  -0.161493   0.002512  -0.000869  -0.000415   0.000271
     73       0.000458   0.010431  -0.000066  -0.000222  -0.000079   0.000037
     74       0.011019   0.283130  -0.004244   0.001714   0.000956  -0.000663
     75      -0.009879  -0.235943   0.000006  -0.002470   0.000600  -0.000858
     76      -0.034171  -0.818666   0.000021  -0.008633   0.002021  -0.002762
     77       0.008821   0.211254   0.000022   0.002217  -0.000515   0.000705
     78      -0.007964  -0.197939  -0.002952  -0.001016  -0.000478   0.000434
     79      -0.004703  -0.119091  -0.001795  -0.000947  -0.000488   0.000402
     80      -0.009696  -0.242648  -0.003465  -0.001261  -0.000706   0.000648
     81      -0.000206   0.001725   0.000029   0.018566   0.762921  -0.470767
     82      -0.000091   0.000779   0.000008   0.008439   0.344517  -0.213763
     83       0.000033  -0.000282  -0.000027  -0.003047  -0.124841   0.077314
     84      -0.000145   0.000697   0.000013   0.004554  -0.347852  -0.560287
     85       0.000161  -0.000804  -0.000023  -0.005092   0.386267   0.625149
     86      -0.000029   0.000146  -0.000023   0.000915  -0.069567  -0.112764
     87      -0.177030   0.005569   0.259050   0.190289  -0.002662   0.003302
     88      -0.023310   0.000799   0.033579   0.025000  -0.000347   0.000381
     89       0.445006  -0.013970  -0.653675  -0.478602   0.006761  -0.008279
     90       0.620832  -0.031441   0.001606   0.575348  -0.007959   0.009489
     91       0.363458  -0.018384   0.000967   0.336808  -0.004671   0.005517
     92      -0.123625   0.006255  -0.000077  -0.114558   0.001588  -0.001882
     93      -0.225350   0.007079  -0.331887   0.244085  -0.003411   0.004209
     94      -0.213180   0.006747  -0.314361   0.230970  -0.003248   0.003926
     95      -0.362631   0.011344  -0.535997   0.392970  -0.005539   0.006776


-----------
IR SPECTRUM
-----------

 Mode   freq       eps      Int      T**2         TX        TY        TZ
       cm**-1   L/(mol*cm) km/mol    a.u.
----------------------------------------------------------------------------
  6:     13.52   0.000014    0.07  0.000333  ( 0.001506  0.003956  0.017750)
  7:     19.28   0.000008    0.04  0.000129  ( 0.005941 -0.004478 -0.008607)
  8:     23.37   0.000184    0.93  0.002455  (-0.002859 -0.011324 -0.048151)
  9:     41.81   0.000020    0.10  0.000152  (-0.000475 -0.003855 -0.011704)
 10:     47.63   0.000266    1.34  0.001743  ( 0.016114 -0.037726  0.007763)
 11:     66.61   0.000008    0.04  0.000038  ( 0.003570 -0.004037  0.003007)
 12:     82.70   0.000688    3.48  0.002595  ( 0.000674  0.012468  0.049387)
 13:    101.19   0.000141    0.71  0.000435  (-0.012523  0.016538 -0.002170)
 14:    108.86   0.000061    0.31  0.000175  ( 0.006996 -0.007176  0.008642)
 15:    128.87   0.000044    0.22  0.000106  (-0.001996 -0.003671 -0.009385)
 16:    144.78   0.000037    0.19  0.000079  (-0.003913 -0.007947  0.000741)
 17:    172.30   0.000085    0.43  0.000153  (-0.012012 -0.002861 -0.000796)
 18:    182.28   0.000037    0.19  0.000063  (-0.000951  0.003083  0.007245)
 19:    231.82   0.000005    0.03  0.000007  ( 0.000307  0.000456 -0.002570)
 20:    235.80   0.000428    2.16  0.000566  (-0.010805 -0.020375  0.005852)
 21:    271.29   0.000008    0.04  0.000009  (-0.000102  0.000782  0.002847)
 22:    283.40   0.000065    0.33  0.000071  (-0.003611 -0.007417  0.001790)
 23:    295.66   0.000255    1.29  0.000269  (-0.013021 -0.009676  0.002481)
 24:    334.98   0.000032    0.16  0.000030  ( 0.001373 -0.005095  0.001541)
 25:    344.63   0.000044    0.22  0.000040  ( 0.001370  0.001866  0.005886)
 26:    370.41   0.000181    0.91  0.000153  (-0.008552  0.008825 -0.001230)
 27:    371.70   0.000031    0.16  0.000026  ( 0.004854 -0.000598  0.001428)
 28:    414.77   0.000276    1.40  0.000208  (-0.007099  0.012415 -0.001852)
 29:    436.00   0.000344    1.74  0.000246  (-0.000836 -0.002875 -0.015405)
 30:    452.57   0.001721    8.69  0.001186  (-0.021580 -0.025785  0.007472)
 31:    470.42   0.000058    0.29  0.000039  ( 0.003373  0.003493 -0.003868)
 32:    529.32   0.000130    0.66  0.000077  (-0.008524  0.001988 -0.000559)
 33:    536.82   0.000551    2.78  0.000320  (-0.002295 -0.017319  0.003873)
 34:    563.23   0.001086    5.49  0.000602  (-0.002471 -0.006142 -0.023621)
 35:    586.30   0.000215    1.09  0.000115  (-0.009924  0.003842 -0.001136)
 36:    611.04   0.000051    0.26  0.000026  (-0.004614 -0.002024  0.000949)
 37:    617.61   0.000340    1.72  0.000172  (-0.002620 -0.004325 -0.012092)
 38:    619.34   0.000077    0.39  0.000039  ( 0.001123  0.002062  0.005750)
 39:    709.85   0.001390    7.03  0.000611  (-0.009530  0.022272 -0.004936)
 40:    720.97   0.000039    0.20  0.000017  (-0.000282 -0.000824 -0.003999)
 41:    745.22   0.007084   35.80  0.002966  (-0.032701 -0.041959  0.011678)
 42:    758.00   0.000372    1.88  0.000153  (-0.000229  0.001993  0.012204)
 43:    796.84   0.000750    3.79  0.000294  ( 0.009577  0.013669 -0.003920)
 44:    830.79   0.000872    4.41  0.000328  (-0.016619 -0.006896  0.001975)
 45:    838.39   0.000230    1.16  0.000086  (-0.001861 -0.002822 -0.008616)
 46:    853.58   0.000454    2.29  0.000166  ( 0.001439 -0.001823 -0.012669)
 47:    907.17   0.011649   58.87  0.004007  (-0.003677 -0.014627 -0.061480)
 48:    910.54   0.002300   11.62  0.000788  (-0.018396  0.020819 -0.004055)
 49:    954.21   0.005839   29.51  0.001910  (-0.022298  0.036820 -0.007533)
 50:   1007.39   0.006943   35.08  0.002151  ( 0.002635  0.010505  0.045092)
 51:   1044.32   0.010337   52.24  0.003089  (-0.055470  0.000269  0.003446)
 52:   1078.25   0.000119    0.60  0.000034  ( 0.003778  0.004377 -0.000951)
 53:   1094.04   0.000007    0.04  0.000002  ( 0.000165 -0.000363 -0.001352)
 54:   1110.97   0.000001    0.00  0.000000  (-0.000023 -0.000100  0.000450)
 55:   1126.39   0.003783   19.12  0.001048  (-0.030664  0.010354 -0.000721)
 56:   1135.44   0.000347    1.75  0.000095  ( 0.009581 -0.000010 -0.001901)
 57:   1136.44   0.001142    5.77  0.000314  ( 0.001502  0.004036  0.017178)
 58:   1159.51   0.000413    2.09  0.000111  ( 0.004655  0.009108 -0.002544)
 59:   1193.30   0.022189  112.13  0.005803  (-0.044141 -0.059236  0.018586)
 60:   1205.67   0.000162    0.82  0.000042  (-0.006362  0.001148  0.000199)
 61:   1215.98   0.013732   69.39  0.003524  (-0.024755 -0.051736  0.015316)
 62:   1232.73   0.001470    7.43  0.000372  (-0.002703 -0.005356 -0.018336)
 63:   1286.54   0.001313    6.63  0.000318  (-0.006753 -0.015853  0.004633)
 64:   1295.47   0.010545   53.29  0.002540  (-0.017706 -0.045189  0.013593)
 65:   1307.06   0.001188    6.00  0.000284  (-0.001058 -0.003954 -0.016338)
 66:   1317.84   0.001795    9.07  0.000425  ( 0.002803 -0.019890  0.004634)
 67:   1338.28   0.007949   40.17  0.001854  ( 0.027976  0.031131 -0.010089)
 68:   1369.69   0.001882    9.51  0.000429  ( 0.001057  0.004684  0.020144)
 69:   1383.33   0.031780  160.60  0.007169  (-0.011026  0.021081  0.081260)
 70:   1419.69   0.034546  174.58  0.007594  ( 0.083121 -0.021231  0.015292)
 71:   1426.65   0.007647   38.64  0.001673  (-0.001377  0.040609 -0.004656)
 72:   1452.64   0.002794   14.12  0.000600  ( 0.024246 -0.003231 -0.001390)
 73:   1517.50   0.017406   87.97  0.003580  (-0.034148 -0.047576  0.012248)
 74:   1524.42   0.002996   15.14  0.000613  ( 0.000090  0.024208 -0.005211)
 75:   1553.78   0.001985   10.03  0.000399  ( 0.007157 -0.018202  0.004028)
 76:   1601.43   0.004676   23.63  0.000911  (-0.027294 -0.011978  0.004771)
 77:   1635.85   0.000351    1.77  0.000067  ( 0.005093  0.005729 -0.002853)
 78:   1641.78   0.017182   86.83  0.003266  (-0.003284 -0.013153 -0.055516)
 79:   1680.05   0.000529    2.67  0.000098  (-0.009899  0.000373  0.000239)
 80:   1702.25   0.005474   27.66  0.001004  ( 0.017138  0.007410 -0.025591)
 81:   1705.46   0.011054   55.86  0.002023  (-0.034930 -0.027976 -0.004460)
 82:   1733.15   0.029923  151.22  0.005388  ( 0.068903  0.023115 -0.010295)
 83:   1775.45   0.013152   66.46  0.002312  ( 0.019250  0.042649 -0.011054)
 84:   1807.06   0.003496   17.67  0.000604  (-0.001329 -0.005655 -0.023875)
 85:   1817.64   0.002270   11.47  0.000390  ( 0.018035 -0.008004  0.000675)
 86:   1833.91   0.005524   27.92  0.000940  ( 0.029116 -0.009601  0.000254)
 87:   1870.71   0.001947    9.84  0.000325  (-0.014714 -0.009889  0.003242)
 88:   3536.65   0.010326   52.18  0.000911  ( 0.022183 -0.020165  0.003527)
 89:   3651.99   0.008086   40.87  0.000691  (-0.001375 -0.006248 -0.025496)
 90:   3678.09   0.000557    2.81  0.000047  ( 0.006134  0.002951 -0.000941)
 91:   3680.47   0.013724   69.36  0.001164  (-0.017615 -0.028118  0.007925)
 92:   3691.38   0.044152  223.13  0.003733  (-0.003541 -0.013977 -0.059369)
 93:   3701.78   0.056904  287.57  0.004797  ( 0.061080  0.030768 -0.010939)
 94:   3722.30   0.009033   45.65  0.000757  ( 0.023262  0.013954 -0.004637)
 95:   3739.76   0.060726  306.88  0.005067  (-0.065811  0.027026 -0.002408)

* The epsilon (eps) is given for a Dirac delta lineshape.
** The dipole moment derivative (T) already includes vibrational overlap.

The first frequency considered to be a vibration is 6
The total number of vibrations considered is 90


--------------------------
THERMOCHEMISTRY AT 298.15K
--------------------------

Temperature         ... 298.15 K
Pressure            ... 1.00 atm
Total Mass          ... 395.59 AMU

Throughout the following assumptions are being made:
  (1) The electronic state is orbitally nondegenerate
  (2) There are no thermally accessible electronically excited states
  (3) Hindered rotations indicated by low frequency modes are not
      treated as such but are treated as vibrations and this may
      cause some error
  (4) All equations used are the standard statistical mechanics
      equations for an ideal gas
  (5) All vibrations are strictly harmonic

freq.      13.52  E(vib)   ...       0.57
freq.      19.28  E(vib)   ...       0.57
freq.      23.37  E(vib)   ...       0.56
freq.      41.81  E(vib)   ...       0.53
freq.      47.63  E(vib)   ...       0.53
freq.      66.61  E(vib)   ...       0.50
freq.      82.70  E(vib)   ...       0.48
freq.     101.19  E(vib)   ...       0.46
freq.     108.86  E(vib)   ...       0.45
freq.     128.87  E(vib)   ...       0.43
freq.     144.78  E(vib)   ...       0.41
freq.     172.30  E(vib)   ...       0.38
freq.     182.28  E(vib)   ...       0.37
freq.     231.82  E(vib)   ...       0.32
freq.     235.80  E(vib)   ...       0.32
freq.     271.29  E(vib)   ...       0.29
freq.     283.40  E(vib)   ...       0.28
freq.     295.66  E(vib)   ...       0.27
freq.     334.98  E(vib)   ...       0.24
freq.     344.63  E(vib)   ...       0.23
freq.     370.41  E(vib)   ...       0.21
freq.     371.70  E(vib)   ...       0.21
freq.     414.77  E(vib)   ...       0.19
freq.     436.00  E(vib)   ...       0.17
freq.     452.57  E(vib)   ...       0.16
freq.     470.42  E(vib)   ...       0.15
freq.     529.32  E(vib)   ...       0.13
freq.     536.82  E(vib)   ...       0.12
freq.     563.23  E(vib)   ...       0.11
freq.     586.30  E(vib)   ...       0.11
freq.     611.04  E(vib)   ...       0.10
freq.     617.61  E(vib)   ...       0.09
freq.     619.34  E(vib)   ...       0.09
freq.     709.85  E(vib)   ...       0.07
freq.     720.97  E(vib)   ...       0.07
freq.     745.22  E(vib)   ...       0.06
freq.     758.00  E(vib)   ...       0.06
freq.     796.84  E(vib)   ...       0.05
freq.     830.79  E(vib)   ...       0.04
freq.     838.39  E(vib)   ...       0.04
freq.     853.58  E(vib)   ...       0.04
freq.     907.17  E(vib)   ...       0.03
freq.     910.54  E(vib)   ...       0.03
freq.     954.21  E(vib)   ...       0.03
freq.    1007.39  E(vib)   ...       0.02
freq.    1044.32  E(vib)   ...       0.02
freq.    1078.25  E(vib)   ...       0.02
freq.    1094.04  E(vib)   ...       0.02
freq.    1110.97  E(vib)   ...       0.01
freq.    1126.39  E(vib)   ...       0.01
freq.    1135.44  E(vib)   ...       0.01
freq.    1136.44  E(vib)   ...       0.01
freq.    1159.51  E(vib)   ...       0.01
freq.    1193.30  E(vib)   ...       0.01
freq.    1205.67  E(vib)   ...       0.01
freq.    1215.98  E(vib)   ...       0.01
freq.    1232.73  E(vib)   ...       0.01
freq.    1286.54  E(vib)   ...       0.01
freq.    1295.47  E(vib)   ...       0.01
freq.    1307.06  E(vib)   ...       0.01
freq.    1317.84  E(vib)   ...       0.01
freq.    1338.28  E(vib)   ...       0.01
freq.    1369.69  E(vib)   ...       0.01
freq.    1383.33  E(vib)   ...       0.00
freq.    1419.69  E(vib)   ...       0.00
freq.    1426.65  E(vib)   ...       0.00
freq.    1452.64  E(vib)   ...       0.00
freq.    1517.50  E(vib)   ...       0.00
freq.    1524.42  E(vib)   ...       0.00
freq.    1553.78  E(vib)   ...       0.00
freq.    1601.43  E(vib)   ...       0.00
freq.    1635.85  E(vib)   ...       0.00
freq.    1641.78  E(vib)   ...       0.00
freq.    1680.05  E(vib)   ...       0.00
freq.    1702.25  E(vib)   ...       0.00
freq.    1705.46  E(vib)   ...       0.00
freq.    1733.15  E(vib)   ...       0.00
freq.    1775.45  E(vib)   ...       0.00
freq.    1807.06  E(vib)   ...       0.00
freq.    1817.64  E(vib)   ...       0.00
freq.    1833.91  E(vib)   ...       0.00
freq.    1870.71  E(vib)   ...       0.00
freq.    3536.65  E(vib)   ...       0.00
freq.    3651.99  E(vib)   ...       0.00
freq.    3678.09  E(vib)   ...       0.00
freq.    3680.47  E(vib)   ...       0.00
freq.    3691.38  E(vib)   ...       0.00
freq.    3701.78  E(vib)   ...       0.00
freq.    3722.30  E(vib)   ...       0.00
freq.    3739.76  E(vib)   ...       0.00

------------
INNER ENERGY
------------

The inner energy is: U= E(el) + E(ZPE) + E(vib) + E(rot) + E(trans)
    E(el)   - is the total energy from the electronic structure calculation
              = E(kin-el) + E(nuc-el) + E(el-el) + E(nuc-nuc)
    E(ZPE)  - the the zero temperature vibrational energy from the frequency calculation
    E(vib)  - the the finite temperature correction to E(ZPE) due to population
              of excited vibrational states
    E(rot)  - is the rotational thermal energy
    E(trans)- is the translational thermal energy

Summary of contributions to the inner energy U:
Electronic energy                ...  -2419.95044661 Eh
Zero point energy                ...      0.23209152 Eh     145.64 kcal/mol
Thermal vibrational correction   ...      0.01724625 Eh      10.82 kcal/mol
Thermal rotational correction    ...      0.00141627 Eh       0.89 kcal/mol
Thermal translational correction ...      0.00141627 Eh       0.89 kcal/mol
-----------------------------------------------------------------------
Total thermal energy                  -2419.69827631 Eh


Summary of corrections to the electronic energy:
(perhaps to be used in another calculation)
Total thermal correction                  0.02007879 Eh      12.60 kcal/mol
Non-thermal (ZPE) correction              0.23209152 Eh     145.64 kcal/mol
-----------------------------------------------------------------------
Total correction                          0.25217030 Eh     158.24 kcal/mol


--------
ENTHALPY
--------

The enthalpy is H = U + kB*T
                kB is Boltzmann's constant
Total free energy                 ...  -2419.69827631 Eh
Thermal Enthalpy correction       ...      0.00094421 Eh       0.59 kcal/mol
-----------------------------------------------------------------------
Total Enthalpy                    ...  -2419.69733210 Eh


Note: Only C1 symmetry has been detected, increase convergence thresholds
      if your molecule has a higher symmetry. Symmetry factor of 1.0 is
      used for the rotational entropy correction.


Note: Rotational entropy computed according to Herzberg
Infrared and Raman Spectra, Chapter V,1, Van Nostrand Reinhold, 1945
Point Group:  C1, Symmetry Number:   1
Rotational constants in cm-1:     0.009173     0.004715     0.004094

Vibrational entropy computed according to the QRRHO of S. Grimme
Chem.Eur.J. 2012 18 9955


-------
ENTROPY
-------

The entropy contributions are T*S = T*(S(el)+S(vib)+S(rot)+S(trans))
     S(el)   - electronic entropy
     S(vib)  - vibrational entropy
     S(rot)  - rotational entropy
     S(trans)- translational entropy
The entropies will be listed as multiplied by the temperature to get
units of energy

Electronic entropy                ...      0.00000000 Eh      0.00 kcal/mol
Vibrational entropy               ...      0.03186087 Eh     19.99 kcal/mol
Rotational entropy                ...      0.01685029 Eh     10.57 kcal/mol
Translational entropy             ...      0.02081893 Eh     13.06 kcal/mol
-----------------------------------------------------------------------
Final entropy term                ...      0.06953008 Eh     43.63 kcal/mol

In case the symmetry of your molecule has not been determined correctly
or in case you have a reason to use a different symmetry number we print
out the resulting rotational entropy values for sn=1,12 :
 --------------------------------------------------------
|  sn= 1 | S(rot)=       0.01685029 Eh     10.57 kcal/mol|
|  sn= 2 | S(rot)=       0.01619583 Eh     10.16 kcal/mol|
|  sn= 3 | S(rot)=       0.01581300 Eh      9.92 kcal/mol|
|  sn= 4 | S(rot)=       0.01554137 Eh      9.75 kcal/mol|
|  sn= 5 | S(rot)=       0.01533069 Eh      9.62 kcal/mol|
|  sn= 6 | S(rot)=       0.01515854 Eh      9.51 kcal/mol|
|  sn= 7 | S(rot)=       0.01501300 Eh      9.42 kcal/mol|
|  sn= 8 | S(rot)=       0.01488692 Eh      9.34 kcal/mol|
|  sn= 9 | S(rot)=       0.01477571 Eh      9.27 kcal/mol|
|  sn=10 | S(rot)=       0.01467623 Eh      9.21 kcal/mol|
|  sn=11 | S(rot)=       0.01458624 Eh      9.15 kcal/mol|
|  sn=12 | S(rot)=       0.01450409 Eh      9.10 kcal/mol|
 --------------------------------------------------------


-------------------
GIBBS FREE ENERGY
-------------------

The Gibbs free energy is G = H - T*S

Total enthalpy                    ...  -2419.69733210 Eh
Total entropy correction          ...     -0.06953008 Eh    -43.63 kcal/mol
-----------------------------------------------------------------------
Final Gibbs free energy         ...  -2419.76686218 Eh

For completeness - the Gibbs free energy minus the electronic energy
G-E(el)                           ...      0.18358443 Eh    115.20 kcal/mol


Timings for individual modules:

Sum of individual times         ...     1219.003 sec (=  20.317 min)
GTO integral calculation        ...       13.135 sec (=   0.219 min)   1.1 %
SCF iterations                  ...       23.266 sec (=   0.388 min)   1.9 %
Analytical frequency calculation...     1182.602 sec (=  19.710 min)  97.0 %
                             ****ORCA TERMINATED NORMALLY****
TOTAL RUN TIME: 0 days 0 hours 20 minutes 23 seconds 954 msec