
                                 *****************
                                 * O   R   C   A *
                                 *****************

                                            #,                                       
                                            ###                                      
                                            ####                                     
                                            #####                                    
                                            ######                                   
                                           ########,                                 
                                     ,,################,,,,,                         
                               ,,#################################,,                 
                          ,,##########################################,,             
                       ,#########################################, ''#####,          
                    ,#############################################,,   '####,        
                  ,##################################################,,,,####,       
                ,###########''''           ''''###############################       
              ,#####''   ,,,,##########,,,,          '''####'''          '####       
            ,##' ,,,,###########################,,,                        '##       
           ' ,,###''''                  '''############,,,                           
         ,,##''                                '''############,,,,        ,,,,,,###''
      ,#''                                            '''#######################'''  
     '                                                          ''''####''''         
             ,#######,   #######,   ,#######,      ##                                
            ,#'     '#,  ##    ##  ,#'     '#,    #''#        ######   ,####,        
            ##       ##  ##   ,#'  ##            #'  '#       #        #'  '#        
            ##       ##  #######   ##           ,######,      #####,   #    #        
            '#,     ,#'  ##    ##  '#,     ,#' ,#      #,         ##   #,  ,#        
             '#######'   ##     ##  '#######'  #'      '#     #####' # '####'        



                  #######################################################
                  #                        -***-                        #
                  #          Department of theory and spectroscopy      #
                  #    Directorship and core code : Frank Neese         #
                  #        Max Planck Institute fuer Kohlenforschung    #
                  #                Kaiser Wilhelm Platz 1               #
                  #                 D-45470 Muelheim/Ruhr               #
                  #                      Germany                        #
                  #                                                     #
                  #                  All rights reserved                #
                  #                        -***-                        #
                  #######################################################


                         Program Version 5.0.4 -  RELEASE  -


 With contributions from (in alphabetic order):
   Daniel Aravena         : Magnetic Suceptibility
   Michael Atanasov       : Ab Initio Ligand Field Theory (pilot matlab implementation)
   Alexander A. Auer      : GIAO ZORA, VPT2 properties, NMR spectrum
   Ute Becker             : Parallelization
   Giovanni Bistoni       : ED, misc. LED, open-shell LED, HFLD
   Martin Brehm           : Molecular dynamics
   Dmytro Bykov           : SCF Hessian
   Vijay G. Chilkuri      : MRCI spin determinant printing, contributions to CSF-ICE
   Dipayan Datta          : RHF DLPNO-CCSD density
   Achintya Kumar Dutta   : EOM-CC, STEOM-CC
   Dmitry Ganyushin       : Spin-Orbit,Spin-Spin,Magnetic field MRCI
   Miquel Garcia          : C-PCM and meta-GGA Hessian, CC/C-PCM, Gaussian charge scheme
   Yang Guo               : DLPNO-NEVPT2, F12-NEVPT2, CIM, IAO-localization
   Andreas Hansen         : Spin unrestricted coupled pair/coupled cluster methods
   Benjamin Helmich-Paris : MC-RPA, TRAH-SCF, COSX integrals
   Lee Huntington         : MR-EOM, pCC
   Robert Izsak           : Overlap fitted RIJCOSX, COSX-SCS-MP3, EOM
   Marcus Kettner         : VPT2
   Christian Kollmar      : KDIIS, OOCD, Brueckner-CCSD(T), CCSD density, CASPT2, CASPT2-K
   Simone Kossmann        : Meta GGA functionals, TD-DFT gradient, OOMP2, MP2 Hessian
   Martin Krupicka        : Initial AUTO-CI
   Lucas Lang             : DCDCAS
   Marvin Lechner         : AUTO-CI (C++ implementation), FIC-MRCC
   Dagmar Lenk            : GEPOL surface, SMD
   Dimitrios Liakos       : Extrapolation schemes; Compound Job, initial MDCI parallelization
   Dimitrios Manganas     : Further ROCIS development; embedding schemes
   Dimitrios Pantazis     : SARC Basis sets
   Anastasios Papadopoulos: AUTO-CI, single reference methods and gradients
   Taras Petrenko         : DFT Hessian,TD-DFT gradient, ASA, ECA, R-Raman, ABS, FL, XAS/XES, NRVS
   Peter Pinski           : DLPNO-MP2, DLPNO-MP2 Gradient
   Christoph Reimann      : Effective Core Potentials
   Marius Retegan         : Local ZFS, SOC
   Christoph Riplinger    : Optimizer, TS searches, QM/MM, DLPNO-CCSD(T), (RO)-DLPNO pert. Triples
   Tobias Risthaus        : Range-separated hybrids, TD-DFT gradient, RPA, STAB
   Michael Roemelt        : Original ROCIS implementation
   Masaaki Saitow         : Open-shell DLPNO-CCSD energy and density
   Barbara Sandhoefer     : DKH picture change effects
   Avijit Sen             : IP-ROCIS
   Kantharuban Sivalingam : CASSCF convergence, NEVPT2, FIC-MRCI
   Bernardo de Souza      : ESD, SOC TD-DFT
   Georgi Stoychev        : AutoAux, RI-MP2 NMR, DLPNO-MP2 response
   Willem Van den Heuvel  : Paramagnetic NMR
   Boris Wezisla          : Elementary symmetry handling
   Frank Wennmohs         : Technical directorship


 We gratefully acknowledge several colleagues who have allowed us to
 interface, adapt or use parts of their codes:
   Stefan Grimme, W. Hujo, H. Kruse, P. Pracht,  : VdW corrections, initial TS optimization,
                  C. Bannwarth, S. Ehlert          DFT functionals, gCP, sTDA/sTD-DF
   Ed Valeev, F. Pavosevic, A. Kumar             : LibInt (2-el integral package), F12 methods
   Garnet Chan, S. Sharma, J. Yang, R. Olivares  : DMRG
   Ulf Ekstrom                                   : XCFun DFT Library
   Mihaly Kallay                                 : mrcc  (arbitrary order and MRCC methods)
   Jiri Pittner, Ondrej Demel                    : Mk-CCSD
   Frank Weinhold                                : gennbo (NPA and NBO analysis)
   Christopher J. Cramer and Donald G. Truhlar   : smd solvation model
   Lars Goerigk                                  : TD-DFT with DH, B97 family of functionals
   V. Asgeirsson, H. Jonsson                     : NEB implementation
   FAccTs GmbH                                   : IRC, NEB, NEB-TS, DLPNO-Multilevel, CI-OPT
                                                   MM, QMMM, 2- and 3-layer-ONIOM, Crystal-QMMM,
                                                   LR-CPCM, SF, NACMEs, symmetry and pop. for TD-DFT,
                                                   nearIR, NL-DFT gradient (VV10), updates on ESD,
                                                   ML-optimized integration grids
   S Lehtola, MJT Oliveira, MAL Marques          : LibXC Library
   Liviu Ungur et al                             : ANISO software


 Your calculation uses the libint2 library for the computation of 2-el integrals
 For citations please refer to: http://libint.valeyev.net

 Your ORCA version has been built with support for libXC version: 5.1.0
 For citations please refer to: https://tddft.org/programs/libxc/

 This ORCA versions uses:
   CBLAS   interface :  Fast vector & matrix operations
   LAPACKE interface :  Fast linear algebra routines
   SCALAPACK package :  Parallel linear algebra routines
   Shared memory     :  Shared parallel matrices
   BLAS/LAPACK       :  OpenBLAS 0.3.15  USE64BITINT DYNAMIC_ARCH NO_AFFINITY Haswell SINGLE_THREADED
        Core in use  :  Haswell
   Copyright (c) 2011-2014, The OpenBLAS Project


Your calculation utilizes the geometrical counterpoise correction gCP
Please cite in your paper:
H.Kruse, S. Grimme J.Chem.Phys., 136, (2012), 154101 
   

Your calculation utilizes the atom-pairwise dispersion correction
with the Becke-Johnson damping scheme (D3BJ)
Cite in your paper:
S.Grimme, S.Ehrlich, L.Goerigk, J Comput Chem, (2011), 32, 1456–1465 
S.Grimme, J.Antony, S.Ehrlich and H.Krieg, J.Chem.Phys., 132, (2010), 154104 
   

================================================================================

----- Orbital basis set information -----
Your calculation utilizes the basis: MINIX,
   a combination of small basis sets by S. Grimme (see manual for definitions).

================================================================================
                                        WARNINGS
                       Please study these warnings very carefully!
================================================================================


INFO   : the flag for use of the SHARK integral package has been found!

================================================================================
                                       INPUT FILE
================================================================================
NAME = vib_input.inp
|  1> 
|  2> !HF-3c FREQ
|  3> * XYZ 0 1
|  4> Cl          0.64143687   -1.98428428   -2.67462635
|  5>  C          2.32919550   -2.03789139   -2.18766832
|  6>  C          2.85948110   -1.32730091   -1.06907797
|  7>  N          2.41419101   -0.02084908   -0.67795807
|  8>  C          2.83707380    0.75446409    0.42789462
|  9>  C          4.20150137    0.81485742    1.10990560
| 10>  C          1.92761052    1.75508392    0.54139173
| 11>  C          1.92534947    2.91996121    1.56235254
| 12>  F          2.26553559    2.49665952    2.80199051
| 13>  F          2.81165671    3.89133000    1.23033106
| 14>  F          0.71035689    3.49270701    1.64246988
| 15>  N          1.04970300    1.75356507   -0.53116482
| 16>  C          1.37232804    0.74889785   -1.27910495
| 17>  C          0.99773800    0.76721507   -2.71417165
| 18>  C          1.76562095    0.80258775   -3.82748127
| 19>  C          0.85709083    0.95972145   -4.94735527
| 20>  C         -0.38156351    1.02045047   -4.40403461
| 21> Cl         -1.94602358    1.20985699   -5.11557055
| 22>  O         -0.31287792    0.91482610   -3.04983258
| 23>  C          3.84957266   -2.06740141   -0.36261263
| 24> Cl          4.01030111   -2.05157375    1.38766897
| 25>  C          4.57218456   -3.08334517   -0.98457319
| 26>  C          4.24904871   -3.50594044   -2.26078677
| 27>  C          3.05791664   -3.05221772   -2.80165100
| 28>  H          4.95322418    0.26999792    0.55212969
| 29>  H          4.49279404    1.86391771    1.12390947
| 30>  H          4.18092680    0.46232587    2.13657308
| 31>  H          2.83812976    0.72154659   -3.88013029
| 32>  H          1.11484623    1.02145767   -5.99218512
| 33>  H          5.35734177   -3.57322526   -0.42414057
| 34>  H          4.82773924   -4.27324820   -2.75613856
| 35>  H          2.64241910   -3.51929235   -3.68482184
| 36> *
| 37> 
| 38>                          ****END OF INPUT****
================================================================================

                       ****************************
                       * Single Point Calculation *
                       ****************************

---------------------------------
CARTESIAN COORDINATES (ANGSTROEM)
---------------------------------
  Cl     0.641437   -1.984284   -2.674626
  C      2.329195   -2.037891   -2.187668
  C      2.859481   -1.327301   -1.069078
  N      2.414191   -0.020849   -0.677958
  C      2.837074    0.754464    0.427895
  C      4.201501    0.814857    1.109906
  C      1.927611    1.755084    0.541392
  C      1.925349    2.919961    1.562353
  F      2.265536    2.496660    2.801991
  F      2.811657    3.891330    1.230331
  F      0.710357    3.492707    1.642470
  N      1.049703    1.753565   -0.531165
  C      1.372328    0.748898   -1.279105
  C      0.997738    0.767215   -2.714172
  C      1.765621    0.802588   -3.827481
  C      0.857091    0.959721   -4.947355
  C     -0.381564    1.020450   -4.404035
  Cl    -1.946024    1.209857   -5.115571
  O     -0.312878    0.914826   -3.049833
  C      3.849573   -2.067401   -0.362613
  Cl     4.010301   -2.051574    1.387669
  C      4.572185   -3.083345   -0.984573
  C      4.249049   -3.505940   -2.260787
  C      3.057917   -3.052218   -2.801651
  H      4.953224    0.269998    0.552130
  H      4.492794    1.863918    1.123909
  H      4.180927    0.462326    2.136573
  H      2.838130    0.721547   -3.880130
  H      1.114846    1.021458   -5.992185
  H      5.357342   -3.573225   -0.424141
  H      4.827739   -4.273248   -2.756139
  H      2.642419   -3.519292   -3.684822

----------------------------
CARTESIAN COORDINATES (A.U.)
----------------------------
  NO LB      ZA    FRAG     MASS         X           Y           Z
   0 Cl   17.0000    0    35.453    1.212140   -3.749754   -5.054311
   1 C     6.0000    0    12.011    4.401542   -3.851057   -4.134094
   2 C     6.0000    0    12.011    5.403636   -2.508235   -2.020265
   3 N     7.0000    0    14.007    4.562160   -0.039399   -1.281155
   4 C     6.0000    0    12.011    5.361293    1.425731    0.808604
   5 C     6.0000    0    12.011    7.939687    1.539857    2.097418
   6 C     6.0000    0    12.011    3.642656    3.316628    1.023082
   7 C     6.0000    0    12.011    3.638383    5.517927    2.952418
   8 F     9.0000    0    18.998    4.281242    4.718003    5.294995
   9 F     9.0000    0    18.998    5.313261    7.353548    2.324989
  10 F     9.0000    0    18.998    1.342380    6.600260    3.103818
  11 N     7.0000    0    14.007    1.983651    3.313758   -1.003756
  12 C     6.0000    0    12.011    2.593324    1.415212   -2.417158
  13 C     6.0000    0    12.011    1.885452    1.449826   -5.129041
  14 C     6.0000    0    12.011    3.336540    1.516671   -7.232891
  15 C     6.0000    0    12.011    1.619667    1.813611   -9.349147
  16 C     6.0000    0    12.011   -0.721051    1.928372   -8.322419
  17 Cl   17.0000    0    35.453   -3.677452    2.286298   -9.667027
  18 O     8.0000    0    15.999   -0.591254    1.728771   -5.763348
  19 C     6.0000    0    12.011    7.274638   -3.906822   -0.685239
  20 Cl   17.0000    0    35.453    7.578371   -3.876913    2.622314
  21 C     6.0000    0    12.011    8.640177   -5.826678   -1.860574
  22 C     6.0000    0    12.011    8.029538   -6.625267   -4.272268
  23 C     6.0000    0    12.011    5.778625   -5.767856   -5.294353
  24 H     1.0000    0     1.008    9.360237    0.510222    1.043374
  25 H     1.0000    0     1.008    8.490150    3.522294    2.123881
  26 H     1.0000    0     1.008    7.900807    0.873669    4.037538
  27 H     1.0000    0     1.008    5.363288    1.363525   -7.332384
  28 H     1.0000    0     1.008    2.106754    1.930275  -11.323589
  29 H     1.0000    0     1.008   10.123909   -6.752417   -0.801510
  30 H     1.0000    0     1.008    9.123105   -8.075269   -5.208347
  31 H     1.0000    0     1.008    4.993448   -6.650499   -6.963304

--------------------------------
INTERNAL COORDINATES (ANGSTROEM)
--------------------------------
 Cl     0   0   0     0.000000000000     0.00000000     0.00000000
 C      1   0   0     1.757421701915     0.00000000     0.00000000
 C      2   1   0     1.427370315982   123.96907326     0.00000000
 N      3   2   1     1.434599046611   123.48391660   323.85751075
 C      4   3   2     1.415221020772   128.25697140   177.92893202
 C      5   4   3     1.526580795413   129.63092171    31.70095039
 C      5   4   3     1.356924867425   105.60894170   193.37072104
 C      7   5   4     1.548969072855   127.63811527   181.85024954
 F      8   7   5     1.353371055425   111.60139844   318.01963109
 F      8   7   5     1.356221262569   112.10557480    77.39335566
 F      8   7   5     1.345608973306   111.14062684   197.65767945
 N      7   5   4     1.386038049090   111.03826403   352.45075030
 C     12   7   5     1.293389955675   106.87865080     2.00082780
 C     13  12   7     1.483263176939   119.13709276   203.36985808
 C     14  13  12     1.352905673495   130.77930193   114.96126542
 C     15  14  13     1.450598412552   106.41760322   186.39998785
 C     16  15  14     1.353938671969   105.54798373     0.67773916
 Cl    17  16  15     1.729073027479   131.87699493   179.59930672
 O     17  16  15     1.360050497543   110.47984288     0.00000000
 C      3   2   1     1.423770811579   112.85629616   142.23653791
 Cl    20   3   2     1.757717220931   123.57320151   218.11978944
 C     20   3   2     1.393249661654   121.21233089    23.73289992
 C     22  20   3     1.382651308739   120.91077788   352.70794133
 C     23  22  20     1.384627758685   117.48031880   349.24225108
 H      6   5   4     1.083084956774   111.73769970     8.86990488
 H      6   5   4     1.088841136266   106.43757730   126.30076698
 H      6   5   4     1.085701580162   113.12148047   244.50339600
 H     15  14  13     1.076854092460   127.12497296     6.91640191
 H     16  15  14     1.077923291584   127.21051050   180.32733576
 H     22  20   3     1.081914538470   118.38023525   176.12292973
 H     23  22  20     1.081211045044   120.97718721   178.12003215
 H     24  23  22     1.082029411967   120.51187685   194.25647543

---------------------------
INTERNAL COORDINATES (A.U.)
---------------------------
 Cl     0   0   0     0.000000000000     0.00000000     0.00000000
 C      1   0   0     3.321045718430     0.00000000     0.00000000
 C      2   1   0     2.697338988895   123.96907326     0.00000000
 N      3   2   1     2.710999310080   123.48391660   323.85751075
 C      4   3   2     2.674380148227   128.25697140   177.92893202
 C      5   4   3     2.884819624635   129.63092171    31.70095039
 C      5   4   3     2.564216383740   105.60894170   193.37072104
 C      7   5   4     2.927127337610   127.63811527   181.85024954
 F      8   7   5     2.557500652330   111.60139844   318.01963109
 F      8   7   5     2.562886763256   112.10557480    77.39335566
 F      8   7   5     2.542832442895   111.14062684   197.65767945
 N      7   5   4     2.619232323975   111.03826403   352.45075030
 C     12   7   5     2.444152800591   106.87865080     2.00082780
 C     13  12   7     2.802961188946   119.13709276   203.36985808
 C     14  13  12     2.556621207934   130.77930193   114.96126542
 C     15  14  13     2.741233730025   106.41760322   186.39998785
 C     16  15  14     2.558573292147   105.54798373     0.67773916
 Cl    17  16  15     3.267474487485   131.87699493   179.59930672
 O     17  16  15     2.570122968660   110.47984288     0.00000000
 C      3   2   1     2.690536911355   112.85629616   142.23653791
 Cl    20   3   2     3.321604168438   123.57320151   218.11978944
 C     20   3   2     2.632860296705   121.21233089    23.73289992
 C     22  20   3     2.612832312225   120.91077788   352.70794133
 C     23  22  20     2.616567261339   117.48031880   349.24225108
 H      6   5   4     2.046733948073   111.73769970     8.86990488
 H      6   5   4     2.057611550891   106.43757730   126.30076698
 H      6   5   4     2.051678649671   113.12148047   244.50339600
 H     15  14  13     2.034959320942   127.12497296     6.91640191
 H     16  15  14     2.036979814469   127.21051050   180.32733576
 H     22  20   3     2.044522178017   118.38023525   176.12292973
 H     23  22  20     2.043192768103   120.97718721   178.12003215
 H     24  23  22     2.044739257466   120.51187685   194.25647543

---------------------
BASIS SET INFORMATION
---------------------
There are 6 groups of distinct atoms

 Group   1 Type Cl  : 9s6p1d contracted to 3s2p1d pattern {333/33/1}
 Group   2 Type C   : 6s3p contracted to 2s1p pattern {33/3}
 Group   3 Type N   : 6s3p contracted to 2s1p pattern {33/3}
 Group   4 Type F   : 6s3p contracted to 2s1p pattern {33/3}
 Group   5 Type O   : 6s3p contracted to 2s1p pattern {33/3}
 Group   6 Type H   : 3s contracted to 1s pattern {3}

Atom   0Cl   basis set group =>   1
Atom   1C    basis set group =>   2
Atom   2C    basis set group =>   2
Atom   3N    basis set group =>   3
Atom   4C    basis set group =>   2
Atom   5C    basis set group =>   2
Atom   6C    basis set group =>   2
Atom   7C    basis set group =>   2
Atom   8F    basis set group =>   4
Atom   9F    basis set group =>   4
Atom  10F    basis set group =>   4
Atom  11N    basis set group =>   3
Atom  12C    basis set group =>   2
Atom  13C    basis set group =>   2
Atom  14C    basis set group =>   2
Atom  15C    basis set group =>   2
Atom  16C    basis set group =>   2
Atom  17Cl   basis set group =>   1
Atom  18O    basis set group =>   5
Atom  19C    basis set group =>   2
Atom  20Cl   basis set group =>   1
Atom  21C    basis set group =>   2
Atom  22C    basis set group =>   2
Atom  23C    basis set group =>   2
Atom  24H    basis set group =>   6
Atom  25H    basis set group =>   6
Atom  26H    basis set group =>   6
Atom  27H    basis set group =>   6
Atom  28H    basis set group =>   6
Atom  29H    basis set group =>   6
Atom  30H    basis set group =>   6
Atom  31H    basis set group =>   6
------------------------------------------------------------------------------
                           ORCA GTO INTEGRAL CALCULATION
------------------------------------------------------------------------------
------------------------------------------------------------------------------
                   ___                                                        
                  /   \      - P O W E R E D   B Y -                         
                 /     \                                                     
                 |  |  |   _    _      __       _____    __    __             
                 |  |  |  | |  | |    /  \     |  _  \  |  |  /  |          
                  \  \/   | |  | |   /    \    | | | |  |  | /  /          
                 / \  \   | |__| |  /  /\  \   | |_| |  |  |/  /          
                |  |  |   |  __  | /  /__\  \  |    /   |      \           
                |  |  |   | |  | | |   __   |  |    \   |  |\   \          
                \     /   | |  | | |  |  |  |  | |\  \  |  | \   \       
                 \___/    |_|  |_| |__|  |__|  |_| \__\ |__|  \__/        
                                                                              
                      - O R C A' S   B I G   F R I E N D -                    
                                      &                                       
                       - I N T E G R A L  F E E D E R -                       
                                                                              
 v1 FN, 2020, v2 2021                                                         
------------------------------------------------------------------------------


Reading SHARK input file vib_input.SHARKINP.tmp ... ok
----------------------
SHARK INTEGRAL PACKAGE
----------------------

Number of atoms                             ...     32
Number of basis functions                   ...    155
Number of shells                            ...     89
Maximum angular momentum                    ...      2
Integral batch strategy                     ... SHARK/LIBINT Hybrid
RI-J (if used) integral strategy            ... SPLIT-RIJ (Revised 2003 algorithm where possible)
Printlevel                                  ...      1
Contraction scheme used                     ... SEGMENTED contraction
Coulomb Range Separation                    ... NOT USED
Exchange Range Separation                   ... NOT USED
Finite Nucleus Model                        ... NOT USED
Auxiliary Coulomb fitting basis             ... NOT available
Auxiliary J/K fitting basis                 ... NOT available
Auxiliary Correlation fitting basis         ... NOT available
Auxiliary 'external' fitting basis          ... NOT available
Integral threshold                          ...     1.000000e-10
Primitive cut-off                           ...     1.000000e-11
Primitive pair pre-selection threshold      ...     1.000000e-11

Calculating pre-screening integrals         ... done (  0.1 sec) Dimension = 89
Organizing shell pair data                  ... done (  0.0 sec)
Shell pair information
Total number of shell pairs                 ...      4005
Shell pairs after pre-screening             ...      2847
Total number of primitive shell pairs       ...     34449
Primitive shell pairs kept                  ...     14303
          la=0 lb=0:   1135 shell pairs
          la=1 lb=0:   1232 shell pairs
          la=1 lb=1:    327 shell pairs
          la=2 lb=0:     95 shell pairs
          la=2 lb=1:     54 shell pairs
          la=2 lb=2:      4 shell pairs

Calculating one electron integrals          ... done (  0.1 sec)
Calculating Nuclear repulsion               ... done (  0.0 sec) ENN=   2562.621094337507 Eh
Calculating 4-index integrals               ... 
    -> SHARK/Ints2Disk: Thresh =     1.000000e-10 TCut=    1.000000e-11 
    -> calling libint FockFlag=2 Lmax_loc=2
    -> L=0 1 2 2:     0.022 sec done=      3955 (=100.0%) skipped=         0 
    -> L=0 2 2 2:     0.002 sec done=       300 (=100.0%) skipped=         0 
    -> L=1 1 1 2:     0.200 sec done=     14161 (=100.0%) skipped=         0 
    -> L=1 1 2 2:     0.019 sec done=      1080 (=100.0%) skipped=         0 
    -> L=1 2 1 2:     0.020 sec done=      1142 (=100.0%) skipped=         0 
    -> L=1 2 2 2:     0.006 sec done=       170 (=100.0%) skipped=         0 
    -> L=2 2 2 2:     0.000 sec done=         9 (=100.0%) skipped=         0 
    ->Total LIBINT loop time =    0.273 sec
    -> L=0 0 0 0:     0.341 sec done=    436786 (=100.0%) skipped=         0 
    -> L=1 0 0 0:     0.947 sec done=    979114 (=100.0%) skipped=         0 
    -> L=1 0 1 0:     1.028 sec done=    547015 (=100.0%) skipped=         0 
    -> L=1 1 0 0:     0.450 sec done=    283284 (=100.0%) skipped=         0 
    -> L=1 1 1 0:     1.376 sec done=    314211 (=100.0%) skipped=         0 
    -> L=1 1 1 1:     0.465 sec done=     44512 (=100.0%) skipped=         0 
    -> L=2 0 0 0:     0.057 sec done=     71557 (=100.0%) skipped=         0 
    -> L=2 0 1 0:     0.160 sec done=     80543 (=100.0%) skipped=         0 
    -> L=2 0 1 1:     0.166 sec done=     23474 (=100.0%) skipped=         0 
    -> L=2 0 2 0:     0.009 sec done=      2962 (=100.0%) skipped=         0 
    -> L=2 1 0 0:     0.100 sec done=     44848 (=100.0%) skipped=         0 
    -> L=2 1 1 0:     0.254 sec done=     49750 (=100.0%) skipped=         0 
    -> L=2 1 2 0:     0.041 sec done=      3708 (=100.0%) skipped=         0 
    -> L=2 2 0 0:     0.006 sec done=      3654 (=100.0%) skipped=         0 
    ->Total SHARK integral loop time =    5.400 sec
    -> Total Integral generation matrix time =    5.753 sec
    -> Number of small integrals   =   6535666
    -> Number of medium integrals  =   8868342
    -> Number of large integrals   =   9288782
    -> Number of MB stored         =       211 MB


SHARK setup successfully completed in   6.2 seconds

Maximum memory used throughout the entire GTOINT-calculation: 48.9 MB
-------------------------------------------------------------------------------
                                 ORCA SCF
-------------------------------------------------------------------------------

------------
SCF SETTINGS
------------
Hamiltonian:
 Ab initio Hamiltonian  Method          .... Hartree-Fock(GTOs)


General Settings:
 Integral files         IntName         .... vib_input
 Hartree-Fock type      HFTyp           .... RHF
 Total Charge           Charge          ....    0
 Multiplicity           Mult            ....    1
 Number of Electrons    NEL             ....  198
 Basis Dimension        Dim             ....  155
 Nuclear Repulsion      ENuc            ....   2562.6210943375 Eh

Convergence Acceleration:
 DIIS                   CNVDIIS         .... on
   Start iteration      DIISMaxIt       ....    12
   Startup error        DIISStart       ....  0.200000
   # of expansion vecs  DIISMaxEq       ....     5
   Bias factor          DIISBfac        ....   1.050
   Max. coefficient     DIISMaxC        ....  10.000
 Trust-Rad. Augm. Hess. CNVTRAH         .... auto
   Auto Start mean grad. ratio tolernc. ....  1.125000
   Auto Start start iteration           ....    20
   Auto Start num. interpolation iter.  ....    10
   Max. Number of Micro iterations      ....    16
   Max. Number of Macro iterations      .... Maxiter - #DIIS iter
   Number of Davidson start vectors     ....     2
   Converg. threshold I  (grad. norm)   ....   5.000e-05
   Converg. threshold II (energy diff.) ....   1.000e-06
   Grad. Scal. Fac. for Micro threshold ....   0.100
   Minimum threshold for Micro iter.    ....   0.010
   NR start threshold (gradient norm)   ....   0.001
   Initial trust radius                 ....   0.400
   Minimum AH scaling param. (alpha)    ....   1.000
   Maximum AH scaling param. (alpha)    .... 1000.000
   Orbital update algorithm             .... Taylor
   White noise on init. David. guess    .... on
   Maximum white noise                  ....   0.010
   Quad. conv. algorithm                .... NR
 SOSCF                  CNVSOSCF        .... on
   Start iteration      SOSCFMaxIt      ....   150
   Startup grad/error   SOSCFStart      ....  0.003300
 Level Shifting         CNVShift        .... on
   Level shift para.    LevelShift      ....    0.2500
   Turn off err/grad.   ShiftErr        ....    0.0010
 Zerner damping         CNVZerner       .... off
 Static damping         CNVDamp         .... on
   Fraction old density DampFac         ....    0.7000
   Max. Damping (<1)    DampMax         ....    0.9800
   Min. Damping (>=0)   DampMin         ....    0.0000
   Turn off err/grad.   DampErr         ....    0.1000
 Fernandez-Rico         CNVRico         .... off

SCF Procedure:
 Maximum # iterations   MaxIter         ....   125
 SCF integral mode      SCFMode         .... Conventional
 Integral Threshold     Thresh          ....  1.000e-10 Eh
 Primitive CutOff       TCut            ....  1.000e-11 Eh
 Integral Buffer length BufferLength    .... 1048576
 Integral index format  IndFormat       ....     0
 Integral value format  ValFormat       ....     0
 Integral Storage       Thresh          ....  1.000e-10 Eh

Convergence Tolerance:
 Convergence Check Mode ConvCheckMode   .... Total+1el-Energy
 Convergence forced     ConvForced      .... 0
 Energy Change          TolE            ....  1.000e-06 Eh
 1-El. energy change                    ....  1.000e-03 Eh
 Orbital Gradient       TolG            ....  5.000e-05
 Orbital Rotation angle TolX            ....  5.000e-05
 DIIS Error             TolErr          ....  1.000e-06


Diagonalization of the overlap matrix:
Smallest eigenvalue                        ... 1.702e-01
Time for diagonalization                   ...    0.021 sec
Threshold for overlap eigenvalues          ... 1.000e-08
Number of eigenvalues below threshold      ... 0
Time for construction of square roots      ...    0.006 sec
Total time needed                          ...    0.027 sec

--------------------------------
INITIAL GUESS: MINIMAL BASIS EHT
--------------------------------
The minimal basis has 140 functions
EHT matrix was diagonalized
Basis set overlap was calculated now projecting the orbitals
Using GuessMode=FMatrix for the initial guess
C*T matrix was formed
Effective Fockian was calculated
Effective Fockian was diagonalized
Initial density was built
                      ------------------
                      INITIAL GUESS DONE
                      ------------------

 InCore treatment chosen:
   Memory dedicated               ...    1024 MB
   Memory needed                  ...    211 MB
   Number of tiny    integrals    ... 6535666
   Number of small   integrals    ... 8868342
   Number of regular integrals    ... 9288782

--------------
SCF ITERATIONS
--------------
ITER       Energy         Delta-E        Max-DP      RMS-DP      [F,P]     Damp
  0  -2417.5064854926   0.000000000000 0.14004209  0.00465760  0.3061630 0.7000
  1  -2418.0821276391  -0.575642146514 0.11708093  0.00386559  0.2308803 0.7000
                               ***Turning on DIIS***
  2  -2418.4779549240  -0.395827284892 0.07710203  0.00268793  0.1619560 0.7000
  3  -2417.8328120631   0.645142860903 0.04994240  0.00182128  0.1116045 0.7000
  4  -2418.1766403641  -0.343828300999 0.14875567  0.00461247  0.0793669 0.0000
  5  -2419.3920973638  -1.215456999682 0.01967470  0.00059528  0.0084673 0.0000
  6  -2419.3827769058   0.009320457919 0.01328782  0.00035146  0.0034710 0.0000
                      *** Initiating the SOSCF procedure ***
                           *** Shutting down DIIS ***
                      *** Re-Reading the Fockian *** 
                      *** Removing any level shift *** 
ITER      Energy       Delta-E        Grad      Rot      Max-DP    RMS-DP
  7  -2419.39585259  -0.0130756817  0.002491  0.002491  0.005872  0.000211
  8  -2419.41708920  -0.0212366168  0.001020  0.002468  0.002475  0.000097
  9  -2419.41713673  -0.0000475229  0.000451  0.002716  0.002768  0.000116
 10  -2419.41715801  -0.0000212836  0.000145  0.000251  0.000532  0.000015
 11  -2419.41715921  -0.0000011990  0.000055  0.000156  0.000215  0.000008
                 **** Energy Check signals convergence ****
              ***Rediagonalizing the Fockian in SOSCF/NRSCF***

               *****************************************************
               *                     SUCCESS                       *
               *           SCF CONVERGED AFTER  12 CYCLES          *
               *****************************************************


----------------
TOTAL SCF ENERGY
----------------

Total Energy       :        -2419.41715947 Eh          -65835.68793 eV

Components:
Nuclear Repulsion  :         2562.62109434 Eh           69732.46511 eV
Electronic Energy  :        -4982.03825381 Eh         -135568.15304 eV
One Electron Energy:        -8437.05217732 Eh         -229583.86156 eV
Two Electron Energy:         3455.01392351 Eh           94015.70853 eV

Virial components:
Potential Energy   :        -4835.66336775 Eh         -131585.08989 eV
Kinetic Energy     :         2416.24620828 Eh           65749.40196 eV
Virial Ratio       :            2.00131235


---------------
SCF CONVERGENCE
---------------

  Last Energy change         ...   -2.6162e-07  Tolerance :   1.0000e-06
  Last MAX-Density change    ...    1.1043e-04  Tolerance :   1.0000e-05
  Last RMS-Density change    ...    3.6685e-06  Tolerance :   1.0000e-06
  Last Orbital Gradient      ...    1.3364e-05  Tolerance :   5.0000e-05
  Last Orbital Rotation      ...    4.7962e-05  Tolerance :   5.0000e-05

             **** THE GBW FILE WAS UPDATED (vib_input.gbw) ****
             **** DENSITY vib_input.scfp WAS UPDATED ****
             **** ENERGY FILE WAS UPDATED (vib_input.en.tmp) ****
             **** THE GBW FILE WAS UPDATED (vib_input.gbw) ****
             **** DENSITY vib_input.scfp WAS UPDATED ****
----------------
ORBITAL ENERGIES
----------------

  NO   OCC          E(Eh)            E(eV) 
   0   2.0000    -104.123091     -2833.3333 
   1   2.0000    -104.103468     -2832.7994 
   2   2.0000    -104.101271     -2832.7396 
   3   2.0000     -26.043389      -708.6766 
   4   2.0000     -26.039273      -708.5646 
   5   2.0000     -26.036379      -708.4859 
   6   2.0000     -20.472474      -557.0843 
   7   2.0000     -15.561543      -423.4511 
   8   2.0000     -15.460352      -420.6976 
   9   2.0000     -11.517510      -313.4074 
  10   2.0000     -11.325167      -308.1735 
  11   2.0000     -11.323469      -308.1273 
  12   2.0000     -11.301329      -307.5248 
  13   2.0000     -11.293322      -307.3069 
  14   2.0000     -11.293110      -307.3011 
  15   2.0000     -11.292023      -307.2716 
  16   2.0000     -11.280268      -306.9517 
  17   2.0000     -11.240499      -305.8695 
  18   2.0000     -11.234653      -305.7104 
  19   2.0000     -11.233913      -305.6903 
  20   2.0000     -11.229766      -305.5775 
  21   2.0000     -11.208201      -304.9906 
  22   2.0000     -11.207783      -304.9793 
  23   2.0000     -11.203870      -304.8728 
  24   2.0000     -10.544796      -286.9385 
  25   2.0000     -10.531014      -286.5635 
  26   2.0000     -10.527926      -286.4794 
  27   2.0000      -7.979532      -217.1341 
  28   2.0000      -7.974588      -216.9996 
  29   2.0000      -7.974587      -216.9995 
  30   2.0000      -7.965075      -216.7407 
  31   2.0000      -7.962032      -216.6579 
  32   2.0000      -7.960543      -216.6174 
  33   2.0000      -7.960429      -216.6143 
  34   2.0000      -7.957491      -216.5343 
  35   2.0000      -7.957357      -216.5307 
  36   2.0000      -1.702990       -46.3407 
  37   2.0000      -1.597150       -43.4607 
  38   2.0000      -1.594731       -43.3948 
  39   2.0000      -1.506396       -40.9911 
  40   2.0000      -1.399860       -38.0921 
  41   2.0000      -1.271062       -34.5873 
  42   2.0000      -1.215266       -33.0691 
  43   2.0000      -1.181252       -32.1435 
  44   2.0000      -1.163653       -31.6646 
  45   2.0000      -1.133675       -30.8489 
  46   2.0000      -1.127094       -30.6698 
  47   2.0000      -1.114414       -30.3247 
  48   2.0000      -1.060744       -28.8643 
  49   2.0000      -1.028516       -27.9874 
  50   2.0000      -1.026458       -27.9313 
  51   2.0000      -0.996253       -27.1094 
  52   2.0000      -0.940579       -25.5945 
  53   2.0000      -0.899550       -24.4780 
  54   2.0000      -0.864656       -23.5285 
  55   2.0000      -0.850347       -23.1391 
  56   2.0000      -0.827268       -22.5111 
  57   2.0000      -0.818521       -22.2731 
  58   2.0000      -0.784999       -21.3609 
  59   2.0000      -0.772566       -21.0226 
  60   2.0000      -0.768742       -20.9185 
  61   2.0000      -0.764867       -20.8131 
  62   2.0000      -0.748644       -20.3716 
  63   2.0000      -0.717545       -19.5254 
  64   2.0000      -0.699386       -19.0313 
  65   2.0000      -0.689185       -18.7537 
  66   2.0000      -0.684688       -18.6313 
  67   2.0000      -0.675411       -18.3789 
  68   2.0000      -0.647365       -17.6157 
  69   2.0000      -0.647105       -17.6086 
  70   2.0000      -0.640953       -17.4412 
  71   2.0000      -0.628879       -17.1127 
  72   2.0000      -0.621460       -16.9108 
  73   2.0000      -0.616562       -16.7775 
  74   2.0000      -0.611022       -16.6268 
  75   2.0000      -0.600771       -16.3478 
  76   2.0000      -0.597803       -16.2670 
  77   2.0000      -0.596681       -16.2365 
  78   2.0000      -0.589832       -16.0501 
  79   2.0000      -0.588675       -16.0187 
  80   2.0000      -0.586328       -15.9548 
  81   2.0000      -0.580397       -15.7934 
  82   2.0000      -0.562490       -15.3061 
  83   2.0000      -0.553751       -15.0683 
  84   2.0000      -0.546189       -14.8625 
  85   2.0000      -0.532925       -14.5016 
  86   2.0000      -0.520178       -14.1548 
  87   2.0000      -0.505942       -13.7674 
  88   2.0000      -0.484349       -13.1798 
  89   2.0000      -0.477351       -12.9894 
  90   2.0000      -0.472379       -12.8541 
  91   2.0000      -0.468048       -12.7362 
  92   2.0000      -0.466302       -12.6887 
  93   2.0000      -0.451155       -12.2765 
  94   2.0000      -0.427229       -11.6255 
  95   2.0000      -0.385795       -10.4980 
  96   2.0000      -0.370067       -10.0700 
  97   2.0000      -0.355174        -9.6648 
  98   2.0000      -0.331305        -9.0153 
  99   0.0000       0.058140         1.5821 
 100   0.0000       0.122095         3.3224 
 101   0.0000       0.141258         3.8438 
 102   0.0000       0.188089         5.1181 
 103   0.0000       0.219911         5.9841 
 104   0.0000       0.224491         6.1087 
 105   0.0000       0.257272         7.0007 
 106   0.0000       0.270904         7.3717 
 107   0.0000       0.275230         7.4894 
 108   0.0000       0.353927         9.6308 
 109   0.0000       0.396078        10.7778 
 110   0.0000       0.416655        11.3378 
 111   0.0000       0.439904        11.9704 
 112   0.0000       0.478896        13.0314 
 113   0.0000       0.483973        13.1696 
 114   0.0000       0.496140        13.5007 
 115   0.0000       0.507756        13.8167 
 116   0.0000       0.523708        14.2508 
 117   0.0000       0.544968        14.8293 
 118   0.0000       0.557248        15.1635 
 119   0.0000       0.568434        15.4679 
 120   0.0000       0.604169        16.4403 
 121   0.0000       0.633639        17.2422 
 122   0.0000       0.643102        17.4997 
 123   0.0000       0.663616        18.0579 
 124   0.0000       0.682848        18.5812 
 125   0.0000       0.692997        18.8574 
 126   0.0000       0.707500        19.2521 
 127   0.0000       0.720045        19.5934 
 128   0.0000       0.735698        20.0194 
 129   0.0000       0.753455        20.5025 
 130   0.0000       0.770729        20.9726 
 131   0.0000       0.782656        21.2971 
 132   0.0000       0.815823        22.1997 
 133   0.0000       0.843657        22.9571 
 134   0.0000       0.863556        23.4985 
 135   0.0000       0.897149        24.4127 
 136   0.0000       0.927580        25.2407 
 137   0.0000       0.958540        26.0832 
 138   0.0000       0.981506        26.7081 
 139   0.0000       1.015854        27.6428 
 140   0.0000       1.017238        27.6804 
 141   0.0000       1.017563        27.6893 
 142   0.0000       1.017646        27.6916 
 143   0.0000       1.019429        27.7401 
 144   0.0000       1.021675        27.8012 
 145   0.0000       1.022885        27.8341 
 146   0.0000       1.024384        27.8749 
 147   0.0000       1.025805        27.9136 
 148   0.0000       1.035009        28.1640 
 149   0.0000       1.073516        29.2119 
 150   0.0000       1.087702        29.5979 
 151   0.0000       1.099695        29.9242 
 152   0.0000       1.169389        31.8207 
 153   0.0000       1.183831        32.2137 
 154   0.0000       1.195702        32.5367 

                    ********************************
                    * MULLIKEN POPULATION ANALYSIS *
                    ********************************

-----------------------
MULLIKEN ATOMIC CHARGES
-----------------------
   0 Cl:   -0.086371
   1 C :    0.024516
   2 C :    0.137004
   3 N :   -0.273211
   4 C :    0.127446
   5 C :   -0.367382
   6 C :    0.023781
   7 C :    0.784997
   8 F :   -0.295516
   9 F :   -0.295078
  10 F :   -0.281002
  11 N :   -0.244757
  12 C :    0.214713
  13 C :    0.200648
  14 C :   -0.163477
  15 C :   -0.159460
  16 C :    0.232140
  17 Cl:   -0.076404
  18 O :   -0.352534
  19 C :    0.020553
  20 Cl:   -0.100214
  21 C :   -0.119567
  22 C :   -0.137260
  23 C :   -0.118803
  24 H :    0.152079
  25 H :    0.157076
  26 H :    0.167702
  27 H :    0.158127
  28 H :    0.167597
  29 H :    0.169943
  30 H :    0.161779
  31 H :    0.170934
Sum of atomic charges:   -0.0000000

--------------------------------
MULLIKEN REDUCED ORBITAL CHARGES
--------------------------------
  0 Cls       :     5.919425  s :     5.919425
      pz      :     3.918557  p :    11.122195
      px      :     3.233742
      py      :     3.969896
      dz2     :     0.006072  d :     0.044752
      dxz     :     0.010369
      dyz     :     0.000706
      dx2y2   :     0.022675
      dxy     :     0.004929
  1 C s       :     3.054512  s :     3.054512
      pz      :     0.993968  p :     2.920972
      px      :     0.880638
      py      :     1.046366
  2 C s       :     3.018503  s :     3.018503
      pz      :     0.981023  p :     2.844494
      px      :     0.973687
      py      :     0.889784
  3 N s       :     3.368438  s :     3.368438
      pz      :     1.318284  p :     3.904773
      px      :     1.377808
      py      :     1.208681
  4 C s       :     3.044069  s :     3.044069
      pz      :     0.901027  p :     2.828485
      px      :     1.004789
      py      :     0.922669
  5 C s       :     3.151567  s :     3.151567
      pz      :     1.109333  p :     3.215815
      px      :     0.972784
      py      :     1.133698
  6 C s       :     3.009074  s :     3.009074
      pz      :     0.975117  p :     2.967145
      px      :     0.990554
      py      :     1.001473
  7 C s       :     2.991938  s :     2.991938
      pz      :     0.768465  p :     2.223065
      px      :     0.643024
      py      :     0.811577
  8 F s       :     3.933001  s :     3.933001
      pz      :     1.525716  p :     5.362514
      px      :     1.920829
      py      :     1.915969
  9 F s       :     3.933658  s :     3.933658
      pz      :     1.932063  p :     5.361420
      px      :     1.738985
      py      :     1.690372
 10 F s       :     3.932475  s :     3.932475
      pz      :     1.952841  p :     5.348527
      px      :     1.536382
      py      :     1.859304
 11 N s       :     3.579012  s :     3.579012
      pz      :     1.058367  p :     3.665745
      px      :     1.290374
      py      :     1.317004
 12 C s       :     2.986604  s :     2.986604
      pz      :     0.948366  p :     2.798682
      px      :     0.944839
      py      :     0.905478
 13 C s       :     2.998204  s :     2.998204
      pz      :     0.986368  p :     2.801148
      px      :     0.747793
      py      :     1.066987
 14 C s       :     3.075952  s :     3.075952
      pz      :     0.948584  p :     3.087525
      px      :     1.074375
      py      :     1.064566
 15 C s       :     3.077893  s :     3.077893
      pz      :     1.076876  p :     3.081567
      px      :     0.944904
      py      :     1.059787
 16 C s       :     3.016091  s :     3.016091
      pz      :     0.730141  p :     2.751769
      px      :     0.922057
      py      :     1.099571
 17 Cls       :     5.911199  s :     5.911199
      pz      :     3.841375  p :    11.118991
      px      :     3.326990
      py      :     3.950627
      dz2     :     0.003439  d :     0.046214
      dxz     :     0.016230
      dyz     :     0.001474
      dx2y2   :     0.017388
      dxy     :     0.007683
 18 O s       :     3.761068  s :     3.761068
      pz      :     1.382443  p :     4.591466
      px      :     1.485467
      py      :     1.723555
 19 C s       :     3.053741  s :     3.053741
      pz      :     0.849829  p :     2.925707
      px      :     1.025760
      py      :     1.050118
 20 Cls       :     5.918942  s :     5.918942
      pz      :     3.196649  p :    11.137668
      px      :     3.968622
      py      :     3.972397
      dz2     :     0.031392  d :     0.043604
      dxz     :     0.005916
      dyz     :     0.005445
      dx2y2   :     0.000512
      dxy     :     0.000340
 21 C s       :     3.074162  s :     3.074162
      pz      :     1.019142  p :     3.045404
      px      :     1.036787
      py      :     0.989475
 22 C s       :     3.074206  s :     3.074206
      pz      :     1.005622  p :     3.063054
      px      :     1.015209
      py      :     1.042223
 23 C s       :     3.074536  s :     3.074536
      pz      :     1.054036  p :     3.044267
      px      :     1.002359
      py      :     0.987872
 24 H s       :     0.847921  s :     0.847921
 25 H s       :     0.842924  s :     0.842924
 26 H s       :     0.832298  s :     0.832298
 27 H s       :     0.841873  s :     0.841873
 28 H s       :     0.832403  s :     0.832403
 29 H s       :     0.830057  s :     0.830057
 30 H s       :     0.838221  s :     0.838221
 31 H s       :     0.829066  s :     0.829066


                     *******************************
                     * LOEWDIN POPULATION ANALYSIS *
                     *******************************

----------------------
LOEWDIN ATOMIC CHARGES
----------------------
   0 Cl:   -0.053242
   1 C :    0.007803
   2 C :    0.093666
   3 N :   -0.103257
   4 C :    0.091542
   5 C :   -0.232912
   6 C :   -0.048375
   7 C :    0.617980
   8 F :   -0.229814
   9 F :   -0.230341
  10 F :   -0.213847
  11 N :   -0.169204
  12 C :    0.122320
  13 C :    0.138535
  14 C :   -0.130081
  15 C :   -0.131950
  16 C :    0.151403
  17 Cl:   -0.039085
  18 O :   -0.202874
  19 C :    0.003843
  20 Cl:   -0.066625
  21 C :   -0.078954
  22 C :   -0.082795
  23 C :   -0.077931
  24 H :    0.102125
  25 H :    0.105600
  26 H :    0.114058
  27 H :    0.103805
  28 H :    0.110983
  29 H :    0.111097
  30 H :    0.104699
  31 H :    0.111827

-------------------------------
LOEWDIN REDUCED ORBITAL CHARGES
-------------------------------
  0 Cls       :     5.873431  s :     5.873431
      pz      :     3.916722  p :    11.123910
      px      :     3.241504
      py      :     3.965683
      dz2     :     0.007380  d :     0.055901
      dxz     :     0.013439
      dyz     :     0.000996
      dx2y2   :     0.026208
      dxy     :     0.007878
  1 C s       :     2.964314  s :     2.964314
      pz      :     1.024219  p :     3.027883
      px      :     0.934077
      py      :     1.069587
  2 C s       :     2.943045  s :     2.943045
      pz      :     1.019894  p :     2.963288
      px      :     1.007023
      py      :     0.936372
  3 N s       :     3.188410  s :     3.188410
      pz      :     1.323620  p :     3.914847
      px      :     1.380254
      py      :     1.210973
  4 C s       :     2.962555  s :     2.962555
      pz      :     0.943590  p :     2.945903
      px      :     1.031658
      py      :     0.970655
  5 C s       :     2.980914  s :     2.980914
      pz      :     1.110814  p :     3.251998
      px      :     1.012753
      py      :     1.128432
  6 C s       :     2.950518  s :     2.950518
      pz      :     1.017646  p :     3.097857
      px      :     1.032952
      py      :     1.047258
  7 C s       :     2.959755  s :     2.959755
      pz      :     0.829895  p :     2.422265
      px      :     0.725726
      py      :     0.866644
  8 F s       :     3.855357  s :     3.855357
      pz      :     1.539346  p :     5.374458
      px      :     1.918863
      py      :     1.916248
  9 F s       :     3.856987  s :     3.856987
      pz      :     1.931183  p :     5.373354
      px      :     1.744043
      py      :     1.698128
 10 F s       :     3.852620  s :     3.852620
      pz      :     1.950725  p :     5.361227
      px      :     1.549635
      py      :     1.860867
 11 N s       :     3.416277  s :     3.416277
      pz      :     1.099549  p :     3.752928
      px      :     1.304623
      py      :     1.348756
 12 C s       :     2.937347  s :     2.937347
      pz      :     0.995567  p :     2.940333
      px      :     0.984785
      py      :     0.959980
 13 C s       :     2.933852  s :     2.933852
      pz      :     1.029173  p :     2.927614
      px      :     0.826633
      py      :     1.071808
 14 C s       :     2.966478  s :     2.966478
      pz      :     1.018205  p :     3.163602
      px      :     1.076825
      py      :     1.068572
 15 C s       :     2.969470  s :     2.969470
      pz      :     1.076918  p :     3.162480
      px      :     1.019755
      py      :     1.065807
 16 C s       :     2.956728  s :     2.956728
      pz      :     0.812904  p :     2.891868
      px      :     0.977231
      py      :     1.101734
 17 Cls       :     5.861581  s :     5.861581
      pz      :     3.839429  p :    11.121150
      px      :     3.335983
      py      :     3.945738
      dz2     :     0.004714  d :     0.056354
      dxz     :     0.019122
      dyz     :     0.002017
      dx2y2   :     0.020119
      dxy     :     0.010382
 18 O s       :     3.594958  s :     3.594958
      pz      :     1.398423  p :     4.607916
      px      :     1.495315
      py      :     1.714178
 19 C s       :     2.963549  s :     2.963549
      pz      :     0.910995  p :     3.032608
      px      :     1.048426
      py      :     1.073187
 20 Cls       :     5.873224  s :     5.873224
      pz      :     3.204115  p :    11.139005
      px      :     3.965926
      py      :     3.968964
      dz2     :     0.035770  d :     0.054396
      dxz     :     0.008848
      dyz     :     0.008557
      dx2y2   :     0.000770
      dxy     :     0.000450
 21 C s       :     2.961995  s :     2.961995
      pz      :     1.055380  p :     3.116960
      px      :     1.045808
      py      :     1.015772
 22 C s       :     2.955878  s :     2.955878
      pz      :     1.041905  p :     3.126917
      px      :     1.040748
      py      :     1.044263
 23 C s       :     2.962336  s :     2.962336
      pz      :     1.059695  p :     3.115595
      px      :     1.041162
      py      :     1.014739
 24 H s       :     0.897875  s :     0.897875
 25 H s       :     0.894400  s :     0.894400
 26 H s       :     0.885942  s :     0.885942
 27 H s       :     0.896195  s :     0.896195
 28 H s       :     0.889017  s :     0.889017
 29 H s       :     0.888903  s :     0.888903
 30 H s       :     0.895301  s :     0.895301
 31 H s       :     0.888173  s :     0.888173


                      *****************************
                      * MAYER POPULATION ANALYSIS *
                      *****************************

  NA   - Mulliken gross atomic population
  ZA   - Total nuclear charge
  QA   - Mulliken gross atomic charge
  VA   - Mayer's total valence
  BVA  - Mayer's bonded valence
  FA   - Mayer's free valence

  ATOM       NA         ZA         QA         VA         BVA        FA
  0 Cl    17.0864    17.0000    -0.0864     1.1230     1.1230    -0.0000
  1 C      5.9755     6.0000     0.0245     3.9629     3.9629    -0.0000
  2 C      5.8630     6.0000     0.1370     3.9589     3.9589     0.0000
  3 N      7.2732     7.0000    -0.2732     3.4364     3.4364    -0.0000
  4 C      5.8726     6.0000     0.1274     3.9376     3.9376    -0.0000
  5 C      6.3674     6.0000    -0.3674     3.9184     3.9184    -0.0000
  6 C      5.9762     6.0000     0.0238     3.9448     3.9448    -0.0000
  7 C      5.2150     6.0000     0.7850     3.6786     3.6786     0.0000
  8 F      9.2955     9.0000    -0.2955     1.0201     1.0201     0.0000
  9 F      9.2951     9.0000    -0.2951     1.0211     1.0211     0.0000
 10 F      9.2810     9.0000    -0.2810     1.0371     1.0371     0.0000
 11 N      7.2448     7.0000    -0.2448     3.0457     3.0457     0.0000
 12 C      5.7853     6.0000     0.2147     3.9274     3.9274     0.0000
 13 C      5.7994     6.0000     0.2006     3.8835     3.8835    -0.0000
 14 C      6.1635     6.0000    -0.1635     3.9693     3.9693    -0.0000
 15 C      6.1595     6.0000    -0.1595     3.9655     3.9655    -0.0000
 16 C      5.7679     6.0000     0.2321     3.8681     3.8681    -0.0000
 17 Cl    17.0764    17.0000    -0.0764     1.1253     1.1253    -0.0000
 18 O      8.3525     8.0000    -0.3525     2.2666     2.2666    -0.0000
 19 C      5.9794     6.0000     0.0206     3.9588     3.9588     0.0000
 20 Cl    17.1002    17.0000    -0.1002     1.1096     1.1096     0.0000
 21 C      6.1196     6.0000    -0.1196     3.9710     3.9710    -0.0000
 22 C      6.1373     6.0000    -0.1373     3.9750     3.9750     0.0000
 23 C      6.1188     6.0000    -0.1188     3.9708     3.9708    -0.0000
 24 H      0.8479     1.0000     0.1521     0.9769     0.9769    -0.0000
 25 H      0.8429     1.0000     0.1571     0.9753     0.9753    -0.0000
 26 H      0.8323     1.0000     0.1677     0.9719     0.9719    -0.0000
 27 H      0.8419     1.0000     0.1581     0.9750     0.9750    -0.0000
 28 H      0.8324     1.0000     0.1676     0.9719     0.9719    -0.0000
 29 H      0.8301     1.0000     0.1699     0.9711     0.9711     0.0000
 30 H      0.8382     1.0000     0.1618     0.9738     0.9738    -0.0000
 31 H      0.8291     1.0000     0.1709     0.9708     0.9708     0.0000

  Mayer bond orders larger than 0.100000
B(  0-Cl,  1-C ) :   1.0103 B(  1-C ,  2-C ) :   1.3558 B(  1-C , 21-C ) :   0.1024 
B(  1-C , 23-C ) :   1.4386 B(  2-C ,  3-N ) :   1.0341 B(  2-C , 19-C ) :   1.3649 
B(  2-C , 22-C ) :   0.1052 B(  3-N ,  4-C ) :   1.1206 B(  3-N , 12-C ) :   1.0611 
B(  4-C ,  5-C ) :   1.0138 B(  4-C ,  6-C ) :   1.6257 B(  5-C , 24-H ) :   0.9658 
B(  5-C , 25-H ) :   0.9579 B(  5-C , 26-H ) :   0.9546 B(  6-C ,  7-C ) :   0.9439 
B(  6-C , 11-N ) :   1.1869 B(  7-C ,  8-F ) :   0.8990 B(  7-C ,  9-F ) :   0.8944 
B(  7-C , 10-F ) :   0.9178 B( 11-N , 12-C ) :   1.6720 B( 12-C , 13-C ) :   1.0183 
B( 13-C , 14-C ) :   1.6636 B( 13-C , 16-C ) :   0.1134 B( 13-C , 18-O ) :   1.0273 
B( 14-C , 15-C ) :   1.2133 B( 14-C , 27-H ) :   0.9613 B( 15-C , 16-C ) :   1.6611 
B( 15-C , 28-H ) :   0.9588 B( 16-C , 17-Cl) :   1.0239 B( 16-C , 18-O ) :   1.0373 
B( 19-C , 20-Cl) :   1.0067 B( 19-C , 21-C ) :   1.4274 B( 19-C , 23-C ) :   0.1012 
B( 21-C , 22-C ) :   1.4442 B( 21-C , 29-H ) :   0.9507 B( 22-C , 23-C ) :   1.4338 
B( 22-C , 30-H ) :   0.9550 B( 23-C , 31-H ) :   0.9504 

-------
TIMINGS
-------

Total SCF time: 0 days 0 hours 0 min 7 sec 

Total time                  ....       7.989 sec
Sum of individual times     ....       7.104 sec  ( 88.9%)

Fock matrix formation       ....       6.960 sec  ( 87.1%)
Diagonalization             ....       0.033 sec  (  0.4%)
Density matrix formation    ....       0.010 sec  (  0.1%)
Population analysis         ....       0.011 sec  (  0.1%)
Initial guess               ....       0.050 sec  (  0.6%)
Orbital Transformation      ....       0.000 sec  (  0.0%)
Orbital Orthonormalization  ....       0.000 sec  (  0.0%)
DIIS solution               ....       0.014 sec  (  0.2%)
SOSCF solution              ....       0.027 sec  (  0.3%)

Maximum memory used throughout the entire SCF-calculation: 457.6 MB


-------------------------------------------------------------------------------
                          DFT DISPERSION CORRECTION                            
                                                                               
                              DFTD3 V3.1  Rev 1                                
                          USING Becke-Johnson damping                          
-------------------------------------------------------------------------------
Hartree-Fock is recognized
Active option DFTDOPT                   ...         4   

molecular C6(AA) [au] = 17892.219544 


            DFT-D V3
 parameters
 using HF/MINIX parameters
 s6 scaling factor         :     1.0000 
 a1 scaling factor         :     0.4171 
 s8 scaling factor         :     0.8777 
 a2 scaling factor         :     2.9149 
 ad hoc parameters k1-k3   :    16.0000     1.3333    -4.0000 

 Edisp/kcal,au: -124.435356379095  -0.198300341666 
 E6   /kcal   : -67.256160916 
 E8   /kcal   : -57.179195463 
 % E8         :  45.950923538 

-------------------------   ----------------
Dispersion correction           -0.198300342
-------------------------   ----------------

------------------   -----------------
gCP+bas correction        -0.232907792
------------------   -----------------
----------------------------   ----------------
Total correction to HF/MINIX       -0.431208134
----------------------------   ----------------


-------------------------   --------------------
FINAL SINGLE POINT ENERGY     -2419.848367605477
-------------------------   --------------------


                            ***************************************
                            *     ORCA property calculations      *
                            ***************************************

                                    ---------------------
                                    Active property flags
                                    ---------------------
   (+) Dipole Moment


------------------------------------------------------------------------------
                       ORCA ELECTRIC PROPERTIES CALCULATION
------------------------------------------------------------------------------

Dipole Moment Calculation                       ... on
Quadrupole Moment Calculation                   ... off
Polarizability Calculation                      ... off
GBWName                                         ... vib_input.gbw
Electron density                                ... vib_input.scfp
The origin for moment calculation is the CENTER OF MASS  = ( 3.427363,  0.310150 -2.276473)

-------------
DIPOLE MOMENT
-------------
                                X             Y             Z
Electronic contribution:    -15.91901      10.15108       6.82900
Nuclear contribution   :     18.23308     -12.04975      -7.96851
                        -----------------------------------------
Total Dipole Moment    :      2.31407      -1.89868      -1.13951
                        -----------------------------------------
Magnitude (a.u.)       :      3.20287
Magnitude (Debye)      :      8.14105



--------------------
Rotational spectrum 
--------------------
 
Rotational constants in cm-1:     0.007143     0.005321     0.003297 
Rotational constants in MHz :   214.153805   159.528303    98.852143 

 Dipole components along the rotational axes: 
x,y,z [a.u.] :     0.226160     2.848394     1.447028 
x,y,z [Debye]:     0.574853     7.240042     3.678052 

 

-------------------------------------------------------------------------------
                               ORCA SCF HESSIAN
-------------------------------------------------------------------------------



WARNING: Conventional/SemiDirect RunMode not available for Analytical Frequencies
  ===> : Switching RunMode to Direct


                   --------- SHARK INITIALIZATION DONE ---------

Hessian of the Hartree-Fock SCF energy:
Hartree-Fock type                                ... RHF
Number of operators                              ...    1
Number of atoms                                  ...   32
Basis set dimensions                             ...  155
Integral neglect threshold                       ... 1.0e-10
Integral primitive cutoff                        ... 1.0e-11

Nuclear repulsion Hessian  (SHARK)               ... done   (      0.0 sec)

----------------------------------------------
Forming right-hand sides of CP-SCF equations     ...
----------------------------------------------
One electron integral derivatives  (SHARK)       ... done   (      1.2 sec)
Transforming the overlap derivative matrices     ... done   (      0.2 sec)
Making the Q(x) pseudodensities                  ... done   (      0.1 sec)
Adding the E*S(x)*S(y) terms to the Hessian      ... done   (      0.2 sec)
Calculating energy weighted overlap derivatives  ... done   (      0.0 sec)
Two electron integral derivatives (SHARK)        ... done   (     32.1 sec)
tr(F(y)Q(x)) contribution to the Hessian         ... done   (      0.0 sec)
Response fock operator R(S(x)) (SHARK)           ... done   (     67.7 sec)
tr(F(y)S(x)) contribution to the Hessian         ... done   (      0.0 sec)
Transforming and finalizing RHSs                 ... done   (      0.1 sec)

----------------------------------------------
Solving the CP-SCF equations                     ...
----------------------------------------------
     CP-SCF ITERATION   0:   1.0617e-01 ( 197.5 sec   0/ 96 done)
     CP-SCF ITERATION   1:   4.4704e-02 ( 207.7 sec   0/ 96 done)
     CP-SCF ITERATION   2:   1.6613e-02 ( 203.2 sec  10/ 96 done)
     CP-SCF ITERATION   3:   5.0939e-03 ( 156.3 sec  40/ 96 done)
     CP-SCF ITERATION   4:   1.7621e-03 (  71.6 sec  65/ 96 done)
     CP-SCF ITERATION   5:   6.8731e-04 (  33.3 sec  96/ 96 done)
                    *** THE CP-SCF HAS CONVERGED ***

                                                 ... done   (    869.9 sec)
Forming perturbed density Hessian contributions  ... done   (      0.1 sec)
2nd integral derivative contribs (SHARK)         ... done   (    173.3 sec)
Dispersion correction in the Hessian             ... done   (      9.0 sec)
gCP correction in the Hessian                    ... done   (      0.3 sec)
Dipole derivatives                               ... (center of mass:  3.427363,  0.310150 -2.276473)done   (      0.2 sec)

Total SCF Hessian time: 0 days 0 hours 19 min 15 sec 

Writing the Hessian file to the disk             ... done


Maximum memory used throughout the entire SCFHESS-calculation: 148.0 MB

-----------------------
VIBRATIONAL FREQUENCIES
-----------------------

Scaling factor for frequencies =  1.000000000  (already applied!)

   0:         0.00 cm**-1
   1:         0.00 cm**-1
   2:         0.00 cm**-1
   3:         0.00 cm**-1
   4:         0.00 cm**-1
   5:         0.00 cm**-1
   6:       -45.10 cm**-1 ***imaginary mode***
   7:        28.84 cm**-1
   8:        38.43 cm**-1
   9:        47.52 cm**-1
  10:        62.84 cm**-1
  11:        80.85 cm**-1
  12:       118.21 cm**-1
  13:       124.34 cm**-1
  14:       155.48 cm**-1
  15:       170.26 cm**-1
  16:       198.51 cm**-1
  17:       205.53 cm**-1
  18:       231.72 cm**-1
  19:       237.66 cm**-1
  20:       253.31 cm**-1
  21:       296.79 cm**-1
  22:       314.00 cm**-1
  23:       334.59 cm**-1
  24:       374.36 cm**-1
  25:       380.81 cm**-1
  26:       390.52 cm**-1
  27:       398.21 cm**-1
  28:       415.28 cm**-1
  29:       463.51 cm**-1
  30:       472.68 cm**-1
  31:       478.96 cm**-1
  32:       489.61 cm**-1
  33:       532.46 cm**-1
  34:       554.48 cm**-1
  35:       568.77 cm**-1
  36:       580.92 cm**-1
  37:       612.83 cm**-1
  38:       645.77 cm**-1
  39:       686.62 cm**-1
  40:       724.74 cm**-1
  41:       742.13 cm**-1
  42:       800.21 cm**-1
  43:       801.50 cm**-1
  44:       827.51 cm**-1
  45:       835.85 cm**-1
  46:       851.64 cm**-1
  47:       866.49 cm**-1
  48:       886.43 cm**-1
  49:       942.51 cm**-1
  50:       981.74 cm**-1
  51:      1000.73 cm**-1
  52:      1048.45 cm**-1
  53:      1067.85 cm**-1
  54:      1088.12 cm**-1
  55:      1113.42 cm**-1
  56:      1133.23 cm**-1
  57:      1138.50 cm**-1
  58:      1190.32 cm**-1
  59:      1194.25 cm**-1
  60:      1202.12 cm**-1
  61:      1230.34 cm**-1
  62:      1237.84 cm**-1
  63:      1270.55 cm**-1
  64:      1271.12 cm**-1
  65:      1290.96 cm**-1
  66:      1316.00 cm**-1
  67:      1324.76 cm**-1
  68:      1370.01 cm**-1
  69:      1380.23 cm**-1
  70:      1414.77 cm**-1
  71:      1422.90 cm**-1
  72:      1443.21 cm**-1
  73:      1479.88 cm**-1
  74:      1503.43 cm**-1
  75:      1554.59 cm**-1
  76:      1579.64 cm**-1
  77:      1626.51 cm**-1
  78:      1634.34 cm**-1
  79:      1643.58 cm**-1
  80:      1667.01 cm**-1
  81:      1720.27 cm**-1
  82:      1739.35 cm**-1
  83:      1757.71 cm**-1
  84:      1766.19 cm**-1
  85:      1806.54 cm**-1
  86:      1817.75 cm**-1
  87:      1864.78 cm**-1
  88:      3553.56 cm**-1
  89:      3665.21 cm**-1
  90:      3679.91 cm**-1
  91:      3687.15 cm**-1
  92:      3706.01 cm**-1
  93:      3709.04 cm**-1
  94:      3731.35 cm**-1
  95:      3747.32 cm**-1


------------
NORMAL MODES
------------

These modes are the Cartesian displacements weighted by the diagonal matrix
M(i,i)=1/sqrt(m[i]) where m[i] is the mass of the displaced atom
Thus, these vectors are normalized but *not* orthogonal

                  0          1          2          3          4          5    
      0       0.000000   0.000000   0.000000   0.000000   0.000000   0.000000
      1       0.000000   0.000000   0.000000   0.000000   0.000000   0.000000
      2       0.000000   0.000000   0.000000   0.000000   0.000000   0.000000
      3       0.000000   0.000000   0.000000   0.000000   0.000000   0.000000
      4       0.000000   0.000000   0.000000   0.000000   0.000000   0.000000
      5       0.000000   0.000000   0.000000   0.000000   0.000000   0.000000
      6       0.000000   0.000000   0.000000   0.000000   0.000000   0.000000
      7       0.000000   0.000000   0.000000   0.000000   0.000000   0.000000
      8       0.000000   0.000000   0.000000   0.000000   0.000000   0.000000
      9       0.000000   0.000000   0.000000   0.000000   0.000000   0.000000
     10       0.000000   0.000000   0.000000   0.000000   0.000000   0.000000
     11       0.000000   0.000000   0.000000   0.000000   0.000000   0.000000
     12       0.000000   0.000000   0.000000   0.000000   0.000000   0.000000
     13       0.000000   0.000000   0.000000   0.000000   0.000000   0.000000
     14       0.000000   0.000000   0.000000   0.000000   0.000000   0.000000
     15       0.000000   0.000000   0.000000   0.000000   0.000000   0.000000
     16       0.000000   0.000000   0.000000   0.000000   0.000000   0.000000
     17       0.000000   0.000000   0.000000   0.000000   0.000000   0.000000
     18       0.000000   0.000000   0.000000   0.000000   0.000000   0.000000
     19       0.000000   0.000000   0.000000   0.000000   0.000000   0.000000
     20       0.000000   0.000000   0.000000   0.000000   0.000000   0.000000
     21       0.000000   0.000000   0.000000   0.000000   0.000000   0.000000
     22       0.000000   0.000000   0.000000   0.000000   0.000000   0.000000
     23       0.000000   0.000000   0.000000   0.000000   0.000000   0.000000
     24       0.000000   0.000000   0.000000   0.000000   0.000000   0.000000
     25       0.000000   0.000000   0.000000   0.000000   0.000000   0.000000
     26       0.000000   0.000000   0.000000   0.000000   0.000000   0.000000
     27       0.000000   0.000000   0.000000   0.000000   0.000000   0.000000
     28       0.000000   0.000000   0.000000   0.000000   0.000000   0.000000
     29       0.000000   0.000000   0.000000   0.000000   0.000000   0.000000
     30       0.000000   0.000000   0.000000   0.000000   0.000000   0.000000
     31       0.000000   0.000000   0.000000   0.000000   0.000000   0.000000
     32       0.000000   0.000000   0.000000   0.000000   0.000000   0.000000
     33       0.000000   0.000000   0.000000   0.000000   0.000000   0.000000
     34       0.000000   0.000000   0.000000   0.000000   0.000000   0.000000
     35       0.000000   0.000000   0.000000   0.000000   0.000000   0.000000
     36       0.000000   0.000000   0.000000   0.000000   0.000000   0.000000
     37       0.000000   0.000000   0.000000   0.000000   0.000000   0.000000
     38       0.000000   0.000000   0.000000   0.000000   0.000000   0.000000
     39       0.000000   0.000000   0.000000   0.000000   0.000000   0.000000
     40       0.000000   0.000000   0.000000   0.000000   0.000000   0.000000
     41       0.000000   0.000000   0.000000   0.000000   0.000000   0.000000
     42       0.000000   0.000000   0.000000   0.000000   0.000000   0.000000
     43       0.000000   0.000000   0.000000   0.000000   0.000000   0.000000
     44       0.000000   0.000000   0.000000   0.000000   0.000000   0.000000
     45       0.000000   0.000000   0.000000   0.000000   0.000000   0.000000
     46       0.000000   0.000000   0.000000   0.000000   0.000000   0.000000
     47       0.000000   0.000000   0.000000   0.000000   0.000000   0.000000
     48       0.000000   0.000000   0.000000   0.000000   0.000000   0.000000
     49       0.000000   0.000000   0.000000   0.000000   0.000000   0.000000
     50       0.000000   0.000000   0.000000   0.000000   0.000000   0.000000
     51       0.000000   0.000000   0.000000   0.000000   0.000000   0.000000
     52       0.000000   0.000000   0.000000   0.000000   0.000000   0.000000
     53       0.000000   0.000000   0.000000   0.000000   0.000000   0.000000
     54       0.000000   0.000000   0.000000   0.000000   0.000000   0.000000
     55       0.000000   0.000000   0.000000   0.000000   0.000000   0.000000
     56       0.000000   0.000000   0.000000   0.000000   0.000000   0.000000
     57       0.000000   0.000000   0.000000   0.000000   0.000000   0.000000
     58       0.000000   0.000000   0.000000   0.000000   0.000000   0.000000
     59       0.000000   0.000000   0.000000   0.000000   0.000000   0.000000
     60       0.000000   0.000000   0.000000   0.000000   0.000000   0.000000
     61       0.000000   0.000000   0.000000   0.000000   0.000000   0.000000
     62       0.000000   0.000000   0.000000   0.000000   0.000000   0.000000
     63       0.000000   0.000000   0.000000   0.000000   0.000000   0.000000
     64       0.000000   0.000000   0.000000   0.000000   0.000000   0.000000
     65       0.000000   0.000000   0.000000   0.000000   0.000000   0.000000
     66       0.000000   0.000000   0.000000   0.000000   0.000000   0.000000
     67       0.000000   0.000000   0.000000   0.000000   0.000000   0.000000
     68       0.000000   0.000000   0.000000   0.000000   0.000000   0.000000
     69       0.000000   0.000000   0.000000   0.000000   0.000000   0.000000
     70       0.000000   0.000000   0.000000   0.000000   0.000000   0.000000
     71       0.000000   0.000000   0.000000   0.000000   0.000000   0.000000
     72       0.000000   0.000000   0.000000   0.000000   0.000000   0.000000
     73       0.000000   0.000000   0.000000   0.000000   0.000000   0.000000
     74       0.000000   0.000000   0.000000   0.000000   0.000000   0.000000
     75       0.000000   0.000000   0.000000   0.000000   0.000000   0.000000
     76       0.000000   0.000000   0.000000   0.000000   0.000000   0.000000
     77       0.000000   0.000000   0.000000   0.000000   0.000000   0.000000
     78       0.000000   0.000000   0.000000   0.000000   0.000000   0.000000
     79       0.000000   0.000000   0.000000   0.000000   0.000000   0.000000
     80       0.000000   0.000000   0.000000   0.000000   0.000000   0.000000
     81       0.000000   0.000000   0.000000   0.000000   0.000000   0.000000
     82       0.000000   0.000000   0.000000   0.000000   0.000000   0.000000
     83       0.000000   0.000000   0.000000   0.000000   0.000000   0.000000
     84       0.000000   0.000000   0.000000   0.000000   0.000000   0.000000
     85       0.000000   0.000000   0.000000   0.000000   0.000000   0.000000
     86       0.000000   0.000000   0.000000   0.000000   0.000000   0.000000
     87       0.000000   0.000000   0.000000   0.000000   0.000000   0.000000
     88       0.000000   0.000000   0.000000   0.000000   0.000000   0.000000
     89       0.000000   0.000000   0.000000   0.000000   0.000000   0.000000
     90       0.000000   0.000000   0.000000   0.000000   0.000000   0.000000
     91       0.000000   0.000000   0.000000   0.000000   0.000000   0.000000
     92       0.000000   0.000000   0.000000   0.000000   0.000000   0.000000
     93       0.000000   0.000000   0.000000   0.000000   0.000000   0.000000
     94       0.000000   0.000000   0.000000   0.000000   0.000000   0.000000
     95       0.000000   0.000000   0.000000   0.000000   0.000000   0.000000
                  6          7          8          9         10         11    
      0       0.148392   0.030084  -0.088755   0.061316  -0.034654   0.014612
      1      -0.009688   0.024616   0.141692  -0.024264  -0.129890   0.050587
      2      -0.225826  -0.040448  -0.011221  -0.028759   0.041548  -0.075377
      3       0.100886   0.028952  -0.082706   0.060934  -0.017623  -0.015701
      4      -0.006154   0.050315   0.116121   0.019863  -0.005853  -0.041382
      5      -0.061433  -0.036110  -0.040688  -0.022953  -0.001427   0.015148
      6       0.002528   0.000792  -0.068464   0.008290  -0.058071  -0.003510
      7       0.001955   0.021021   0.061216  -0.029620  -0.006874  -0.056309
      8      -0.022145  -0.003725  -0.011614   0.034443   0.015534   0.021551
      9      -0.004517  -0.016082  -0.041408  -0.023927  -0.130454  -0.012656
     10       0.004165   0.008689   0.055298  -0.049311  -0.053594  -0.055711
     11      -0.046182   0.023529   0.041369   0.066027   0.068992   0.039537
     12       0.054412  -0.024990  -0.017294  -0.062075  -0.067515  -0.019756
     13       0.001985  -0.002198   0.012643  -0.053726  -0.029418  -0.047125
     14      -0.069744   0.032890   0.059842   0.085304   0.021924   0.041955
     15       0.117857  -0.069683  -0.027321  -0.137338  -0.013591  -0.015014
     16       0.001625  -0.053780  -0.074271  -0.144037  -0.000338   0.002611
     17      -0.196988   0.124080   0.087431   0.240389  -0.092139   0.029323
     18       0.042949   0.012491   0.032464  -0.003731  -0.082125  -0.043648
     19      -0.016221   0.037064   0.057727   0.010615  -0.047599  -0.070173
     20       0.000709  -0.003933   0.066859  -0.009124   0.073320   0.057653
     21       0.079442   0.039051   0.083643  -0.004114   0.051140  -0.030202
     22      -0.023136   0.035448   0.038932   0.075804   0.018045   0.016662
     23       0.008421  -0.001009   0.088995  -0.083920  -0.000239  -0.042126
     24       0.127309  -0.392609   0.244016   0.092226   0.086645  -0.039225
     25      -0.030374  -0.052323   0.032532   0.189118   0.082162   0.153091
     26      -0.007266   0.088517   0.042522  -0.073236   0.011730   0.004924
     27       0.062888   0.378059  -0.005475  -0.079296   0.119870  -0.016144
     28      -0.017485  -0.191155   0.092452   0.100415  -0.083920  -0.032033
     29      -0.018299   0.235635   0.008868  -0.213530  -0.122792  -0.153129
     30       0.079759   0.166787   0.062182  -0.031130   0.107913  -0.022042
     31      -0.028421   0.346940  -0.025818   0.016522   0.131725   0.043902
     32       0.057034  -0.321405   0.238387  -0.054727   0.024452  -0.113128
     33      -0.022215   0.039640   0.043727   0.066902  -0.166630  -0.060512
     34      -0.021662   0.057389   0.120487   0.030928  -0.089647  -0.092831
     35       0.051981  -0.021247   0.056106  -0.061502   0.139786   0.074991
     36      -0.051468   0.019131  -0.000671   0.053495  -0.193491  -0.043729
     37      -0.008261   0.037163   0.115972  -0.007850  -0.094199  -0.074393
     38       0.020436  -0.003758   0.044457  -0.014049   0.131241   0.061375
     39      -0.078781  -0.001184   0.019961   0.042676  -0.149330  -0.021053
     40       0.027431   0.024971   0.111111  -0.020470  -0.087423   0.019742
     41       0.027387   0.000653   0.038157  -0.011920   0.119596   0.054007
     42      -0.072608  -0.025785   0.064456  -0.001978  -0.047700   0.020482
     43       0.128045   0.057519   0.148777  -0.016464  -0.089058   0.274377
     44       0.034294  -0.014696   0.070978  -0.042031   0.189259   0.092083
     45      -0.073991  -0.056430   0.096887  -0.046475   0.061407   0.045967
     46       0.117564   0.002064  -0.013156   0.005785  -0.037695   0.322203
     47       0.035182   0.001887   0.022498  -0.004236   0.112064   0.076540
     48      -0.081626  -0.048625   0.065917  -0.023935   0.014291   0.016667
     49       0.013425  -0.058816  -0.135952   0.014527  -0.007265   0.081988
     50       0.029148   0.026416  -0.034914   0.046649  -0.000006   0.033988
     51      -0.085363  -0.074768   0.073415  -0.054857   0.101634   0.020028
     52      -0.045554  -0.157949  -0.417428   0.050228   0.097038  -0.054087
     53       0.022672   0.056956  -0.125757   0.123652  -0.162953  -0.009089
     54      -0.085585  -0.015876   0.017612   0.030668  -0.115373  -0.026214
     55      -0.043918  -0.042121  -0.046529  -0.003465  -0.046233  -0.097725
     56       0.025747   0.025265  -0.025600   0.040755   0.007414   0.023113
[...]
     58       0.001615   0.002027  -0.000053  -0.001499   0.000016   0.000018
     59       0.000542   0.000758   0.000046  -0.000620  -0.000008  -0.000001
     60      -0.000018  -0.000034  -0.000102   0.000002   0.000001   0.000000
     61       0.000013   0.000006  -0.000029  -0.000017   0.000001   0.000003
     62       0.000068  -0.000012   0.000137  -0.000042   0.000003  -0.000001
     63       0.038158   0.047528   0.000959  -0.023832   0.000058  -0.000378
     64      -0.024549  -0.029411  -0.000517   0.012733  -0.000036   0.000203
     65       0.025739   0.033637   0.000834  -0.020480   0.000049  -0.000306
     66      -0.022285  -0.005332   0.001489  -0.043251   0.000091  -0.000539
     67       0.030133   0.002211  -0.001973   0.056239  -0.000111   0.000697
     68       0.019420  -0.003097  -0.001349   0.037180  -0.000064   0.000462
     69      -0.020849   0.023509  -0.000161   0.015246  -0.000099   0.000289
     70      -0.025888   0.026210  -0.000014   0.011216  -0.000082   0.000306
     71      -0.047262   0.050175  -0.000148   0.025888  -0.000174   0.000630
     72      -0.003230   0.003479  -0.574229  -0.017107   0.003911   0.004025
     73       0.001995  -0.002689   0.436416   0.013393  -0.003038  -0.003167
     74       0.002197  -0.002680   0.427837   0.012974  -0.003127  -0.003313
     75       0.000092   0.000476   0.042973   0.001710  -0.000139   0.000108
     76       0.000774   0.001787   0.152118   0.005934  -0.000097   0.001188
     77      -0.000038   0.000104  -0.004447  -0.000148  -0.000067  -0.000122
     78      -0.000145   0.000147  -0.009678  -0.000402  -0.000009  -0.000134
     79      -0.000974   0.003089  -0.179321  -0.006549   0.000929   0.000273
     80       0.002258  -0.008350   0.478695   0.017888  -0.002448  -0.000653
     81       0.001980  -0.001082   0.008357  -0.009064   0.620124   0.774097
     82      -0.000199   0.000000  -0.000600   0.000761  -0.046819  -0.058578
     83      -0.000020  -0.000027  -0.000462   0.000260  -0.032313  -0.038654
     84       0.000744  -0.000476  -0.000349  -0.002587  -0.188702   0.149615
     85       0.000231  -0.000215  -0.000067  -0.000651  -0.044193   0.035406
     86      -0.003022   0.002036   0.001277   0.010538   0.752488  -0.602478
     87      -0.422748  -0.525924  -0.010888   0.256412  -0.000656   0.004012
     88       0.263715   0.328283   0.006470  -0.159442   0.000432  -0.002473
     89      -0.301754  -0.377274  -0.007759   0.183167  -0.000460   0.002872
     90       0.261190   0.018572  -0.016275   0.464819  -0.000893   0.005730
     91      -0.344722  -0.024273   0.021546  -0.616482   0.001230  -0.007559
     92      -0.223574  -0.015392   0.013870  -0.397897   0.000768  -0.004979
     93       0.247678  -0.262910   0.000584  -0.128052   0.000922  -0.003208
     94       0.278326  -0.293738   0.000620  -0.143370   0.001062  -0.003618
     95       0.526255  -0.555461   0.001221  -0.272111   0.001930  -0.006997


-----------
IR SPECTRUM
-----------

 Mode   freq       eps      Int      T**2         TX        TY        TZ
       cm**-1   L/(mol*cm) km/mol    a.u.
----------------------------------------------------------------------------
  7:     28.84   0.000006    0.03  0.000060  (-0.005643  0.005278  0.000618)
  8:     38.43   0.000019    0.10  0.000158  (-0.009242  0.007090 -0.004745)
  9:     47.52   0.000080    0.41  0.000527  (-0.003244 -0.011705  0.019485)
 10:     62.84   0.000033    0.16  0.000162  ( 0.007756  0.010028 -0.000987)
 11:     80.85   0.000062    0.31  0.000240  ( 0.001895  0.005582  0.014319)
 12:    118.21   0.000125    0.63  0.000331  (-0.011912  0.012958  0.004594)
 13:    124.34   0.000312    1.57  0.000782  (-0.015140 -0.022269  0.007538)
 14:    155.48   0.000137    0.69  0.000275  ( 0.009262 -0.013676  0.001431)
 15:    170.26   0.000062    0.31  0.000113  ( 0.003873  0.008155  0.005608)
 16:    198.51   0.000182    0.92  0.000286  ( 0.001112  0.007891 -0.014900)
 17:    205.53   0.000042    0.21  0.000064  (-0.003767  0.007066  0.000124)
 18:    231.72   0.000010    0.05  0.000013  ( 0.002264  0.002886 -0.000196)
 19:    237.66   0.000206    1.04  0.000271  (-0.002694 -0.010075 -0.012743)
 20:    253.31   0.000329    1.66  0.000405  ( 0.006622 -0.014145  0.012697)
 21:    296.79   0.000917    4.63  0.000964  ( 0.005510 -0.028621 -0.010691)
 22:    314.00   0.000070    0.35  0.000070  ( 0.004280 -0.000629 -0.007136)
 23:    334.59   0.000073    0.37  0.000068  ( 0.006000  0.005385 -0.001870)
 24:    374.36   0.000078    0.39  0.000065  ( 0.005944 -0.005097  0.001922)
 25:    380.81   0.000202    1.02  0.000166  (-0.006816 -0.008534 -0.006804)
 26:    390.52   0.000261    1.32  0.000209  (-0.008950  0.008938 -0.006993)
 27:    398.21   0.000106    0.54  0.000083  (-0.006121  0.002692 -0.006194)
 28:    415.28   0.000284    1.44  0.000213  ( 0.006684  0.009556  0.008798)
 29:    463.51   0.000212    1.07  0.000143  ( 0.009677 -0.000465  0.006994)
 30:    472.68   0.000314    1.59  0.000207  ( 0.000281 -0.012504 -0.007135)
 31:    478.96   0.000908    4.59  0.000591  ( 0.011680 -0.019386 -0.008895)
 32:    489.61   0.000707    3.57  0.000451  (-0.016989 -0.008513 -0.009457)
 33:    532.46   0.000525    2.66  0.000308  (-0.008137 -0.005018 -0.014717)
 34:    554.48   0.000681    3.44  0.000383  (-0.019399  0.000818  0.002474)
 35:    568.77   0.001162    5.87  0.000637  ( 0.001493 -0.023239  0.009750)
 36:    580.92   0.001210    6.11  0.000650  ( 0.001359  0.015558 -0.020150)
 37:    612.83   0.002587   13.07  0.001317  (-0.019807  0.006369 -0.029742)
 38:    645.77   0.000519    2.62  0.000251  (-0.004676  0.014908 -0.002556)
 39:    686.62   0.000738    3.73  0.000335  (-0.002693 -0.012470 -0.013136)
 40:    724.74   0.000123    0.62  0.000053  ( 0.002318 -0.006910 -0.000121)
 41:    742.13   0.006923   34.99  0.002911  (-0.015755  0.029457  0.042370)
 42:    800.21   0.000333    1.68  0.000130  (-0.008911  0.003445  0.006221)
 43:    801.50   0.000703    3.55  0.000274  ( 0.002193 -0.016186  0.002611)
 44:    827.51   0.003093   15.63  0.001166  ( 0.001799  0.033650 -0.005546)
 45:    835.85   0.002835   14.32  0.001058  ( 0.010761 -0.028857 -0.010477)
 46:    851.64   0.003647   18.43  0.001336  (-0.015696 -0.006623 -0.032343)
 47:    866.49   0.004928   24.90  0.001775  ( 0.006807  0.035065 -0.022336)
 48:    886.43   0.003465   17.51  0.001220  (-0.025328 -0.008906 -0.022335)
 49:    942.51   0.007060   35.68  0.002337  (-0.025247 -0.034224  0.022994)
 50:    981.74   0.001141    5.77  0.000363  ( 0.012900 -0.003432  0.013583)
 51:   1000.73   0.008532   43.12  0.002661  ( 0.003903  0.051226  0.004615)
 52:   1048.45   0.002977   15.05  0.000886  (-0.022044 -0.014164  0.014129)
 53:   1067.85   0.007183   36.30  0.002099  ( 0.033529 -0.030650 -0.005952)
 54:   1088.12   0.000012    0.06  0.000003  ( 0.001146  0.000674  0.001312)
 55:   1113.42   0.001503    7.60  0.000421  (-0.007660 -0.013711 -0.013213)
 56:   1133.23   0.006413   32.41  0.001766  ( 0.021963 -0.018450 -0.030711)
 57:   1138.50   0.004571   23.10  0.001253  (-0.004517 -0.030813 -0.016821)
 58:   1190.32   0.009173   46.36  0.002405  (-0.000126 -0.027644 -0.040505)
 59:   1194.25   0.007643   38.62  0.001997  (-0.002136  0.017634  0.041007)
 60:   1202.12   0.001257    6.35  0.000326  (-0.014605  0.007470 -0.007563)
 61:   1230.34   0.001809    9.14  0.000459  (-0.014716 -0.010984 -0.011024)
 62:   1237.84   0.001821    9.20  0.000459  ( 0.004676  0.002613  0.020745)
 63:   1270.55   0.028914  146.12  0.007102  ( 0.021743 -0.078053 -0.023168)
 64:   1271.12   0.006468   32.69  0.001588  ( 0.032474  0.017776  0.014741)
 65:   1290.96   0.002480   12.53  0.000599  (-0.007612  0.018413  0.014227)
 66:   1316.00   0.005544   28.02  0.001315  ( 0.004144  0.032443  0.015650)
 67:   1324.76   0.025045  126.57  0.005900  ( 0.001183  0.057679  0.050709)
 68:   1370.01   0.002442   12.34  0.000556  ( 0.002566 -0.015551  0.017547)
 69:   1380.23   0.032768  165.59  0.007409  ( 0.037901  0.050221 -0.058737)
 70:   1414.77   0.010083   50.96  0.002224  ( 0.024629 -0.025138  0.031396)
 71:   1422.90   0.038295  193.53  0.008399  (-0.069751  0.059202 -0.005355)
 72:   1443.21   0.001077    5.44  0.000233  (-0.014026  0.001881  0.005704)
 73:   1479.88   0.007575   38.28  0.001597  ( 0.027172  0.019312  0.022046)
 74:   1503.43   0.005593   28.27  0.001161  (-0.002728  0.031818 -0.011879)
 75:   1554.59   0.001851    9.35  0.000372  ( 0.008410 -0.016974  0.003561)
 76:   1579.64   0.009326   47.13  0.001842  ( 0.010706  0.034497  0.023186)
 77:   1626.51   0.010592   53.53  0.002032  ( 0.021305  0.009007  0.038694)
 78:   1634.34   0.001082    5.47  0.000207  ( 0.014291 -0.001418  0.000601)
 79:   1643.58   0.102517  518.08  0.019465  ( 0.059787 -0.120778 -0.036093)
 80:   1667.01   0.003393   17.15  0.000635  ( 0.023379  0.000214 -0.009409)
 81:   1720.27   0.003154   15.94  0.000572  ( 0.001488 -0.022159 -0.008886)
 82:   1739.35   0.002820   14.25  0.000506  ( 0.003255  0.011792 -0.018874)
 83:   1757.71   0.011003   55.61  0.001954  ( 0.035211 -0.003842  0.026438)
 84:   1766.19   0.002083   10.53  0.000368  ( 0.013000  0.004775  0.013276)
 85:   1806.54   0.003120   15.77  0.000539  ( 0.004521  0.020778 -0.009314)
 86:   1817.75   0.009765   49.35  0.001676  ( 0.029944 -0.027900 -0.001134)
 87:   1864.78   0.000608    3.07  0.000102  ( 0.004865  0.004825  0.007407)
 88:   3553.56   0.011143   56.31  0.000979  ( 0.022729  0.007780  0.020036)
 89:   3665.21   0.009674   48.89  0.000824  (-0.001359 -0.024930  0.014155)
 90:   3679.91   0.001239    6.26  0.000105  (-0.001935  0.009466  0.003429)
 91:   3687.15   0.040651  205.43  0.003441  (-0.037212  0.000222 -0.045340)
 92:   3706.01   0.011301   57.11  0.000952  (-0.013288  0.010287  0.025868)
 93:   3709.04   0.058512  295.69  0.004923  ( 0.036752 -0.053640 -0.026361)
 94:   3731.35   0.007164   36.20  0.000599  ( 0.006189 -0.001507  0.023634)
 95:   3747.32   0.046392  234.45  0.003863  ( 0.042790  0.002091 -0.045034)

* The epsilon (eps) is given for a Dirac delta lineshape.
** The dipole moment derivative (T) already includes vibrational overlap.

The first frequency considered to be a vibration is 7
The total number of vibrations considered is 89


--------------------------
THERMOCHEMISTRY AT 298.15K
--------------------------

Temperature         ... 298.15 K
Pressure            ... 1.00 atm
Total Mass          ... 395.59 AMU

Throughout the following assumptions are being made:
  (1) The electronic state is orbitally nondegenerate
  (2) There are no thermally accessible electronically excited states
  (3) Hindered rotations indicated by low frequency modes are not
      treated as such but are treated as vibrations and this may
      cause some error
  (4) All equations used are the standard statistical mechanics
      equations for an ideal gas
  (5) All vibrations are strictly harmonic

freq.      28.84  E(vib)   ...       0.55 
freq.      38.43  E(vib)   ...       0.54 
freq.      47.52  E(vib)   ...       0.53 
freq.      62.84  E(vib)   ...       0.51 
freq.      80.85  E(vib)   ...       0.48 
freq.     118.21  E(vib)   ...       0.44 
freq.     124.34  E(vib)   ...       0.43 
freq.     155.48  E(vib)   ...       0.40 
freq.     170.26  E(vib)   ...       0.38 
freq.     198.51  E(vib)   ...       0.35 
freq.     205.53  E(vib)   ...       0.35 
freq.     231.72  E(vib)   ...       0.32 
freq.     237.66  E(vib)   ...       0.32 
freq.     253.31  E(vib)   ...       0.30 
freq.     296.79  E(vib)   ...       0.27 
freq.     314.00  E(vib)   ...       0.25 
freq.     334.59  E(vib)   ...       0.24 
freq.     374.36  E(vib)   ...       0.21 
freq.     380.81  E(vib)   ...       0.21 
freq.     390.52  E(vib)   ...       0.20 
freq.     398.21  E(vib)   ...       0.20 
freq.     415.28  E(vib)   ...       0.18 
freq.     463.51  E(vib)   ...       0.16 
freq.     472.68  E(vib)   ...       0.15 
freq.     478.96  E(vib)   ...       0.15 
freq.     489.61  E(vib)   ...       0.15 
freq.     532.46  E(vib)   ...       0.13 
freq.     554.48  E(vib)   ...       0.12 
freq.     568.77  E(vib)   ...       0.11 
freq.     580.92  E(vib)   ...       0.11 
freq.     612.83  E(vib)   ...       0.10 
freq.     645.77  E(vib)   ...       0.09 
freq.     686.62  E(vib)   ...       0.07 
freq.     724.74  E(vib)   ...       0.06 
freq.     742.13  E(vib)   ...       0.06 
freq.     800.21  E(vib)   ...       0.05 
freq.     801.50  E(vib)   ...       0.05 
freq.     827.51  E(vib)   ...       0.04 
freq.     835.85  E(vib)   ...       0.04 
freq.     851.64  E(vib)   ...       0.04 
freq.     866.49  E(vib)   ...       0.04 
freq.     886.43  E(vib)   ...       0.04 
freq.     942.51  E(vib)   ...       0.03 
freq.     981.74  E(vib)   ...       0.02 
freq.    1000.73  E(vib)   ...       0.02 
freq.    1048.45  E(vib)   ...       0.02 
freq.    1067.85  E(vib)   ...       0.02 
freq.    1088.12  E(vib)   ...       0.02 
freq.    1113.42  E(vib)   ...       0.01 
freq.    1133.23  E(vib)   ...       0.01 
freq.    1138.50  E(vib)   ...       0.01 
freq.    1190.32  E(vib)   ...       0.01 
freq.    1194.25  E(vib)   ...       0.01 
freq.    1202.12  E(vib)   ...       0.01 
freq.    1230.34  E(vib)   ...       0.01 
freq.    1237.84  E(vib)   ...       0.01 
freq.    1270.55  E(vib)   ...       0.01 
freq.    1271.12  E(vib)   ...       0.01 
freq.    1290.96  E(vib)   ...       0.01 
freq.    1316.00  E(vib)   ...       0.01 
freq.    1324.76  E(vib)   ...       0.01 
freq.    1370.01  E(vib)   ...       0.01 
freq.    1380.23  E(vib)   ...       0.01 
freq.    1414.77  E(vib)   ...       0.00 
freq.    1422.90  E(vib)   ...       0.00 
freq.    1443.21  E(vib)   ...       0.00 
freq.    1479.88  E(vib)   ...       0.00 
freq.    1503.43  E(vib)   ...       0.00 
freq.    1554.59  E(vib)   ...       0.00 
freq.    1579.64  E(vib)   ...       0.00 
freq.    1626.51  E(vib)   ...       0.00 
freq.    1634.34  E(vib)   ...       0.00 
freq.    1643.58  E(vib)   ...       0.00 
freq.    1667.01  E(vib)   ...       0.00 
freq.    1720.27  E(vib)   ...       0.00 
freq.    1739.35  E(vib)   ...       0.00 
freq.    1757.71  E(vib)   ...       0.00 
freq.    1766.19  E(vib)   ...       0.00 
freq.    1806.54  E(vib)   ...       0.00 
freq.    1817.75  E(vib)   ...       0.00 
freq.    1864.78  E(vib)   ...       0.00 
freq.    3553.56  E(vib)   ...       0.00 
freq.    3665.21  E(vib)   ...       0.00 
freq.    3679.91  E(vib)   ...       0.00 
freq.    3687.15  E(vib)   ...       0.00 
freq.    3706.01  E(vib)   ...       0.00 
freq.    3709.04  E(vib)   ...       0.00 
freq.    3731.35  E(vib)   ...       0.00 
freq.    3747.32  E(vib)   ...       0.00 

------------
INNER ENERGY
------------

The inner energy is: U= E(el) + E(ZPE) + E(vib) + E(rot) + E(trans)
    E(el)   - is the total energy from the electronic structure calculation
              = E(kin-el) + E(nuc-el) + E(el-el) + E(nuc-nuc)
    E(ZPE)  - the the zero temperature vibrational energy from the frequency calculation
    E(vib)  - the the finite temperature correction to E(ZPE) due to population
              of excited vibrational states
    E(rot)  - is the rotational thermal energy
    E(trans)- is the translational thermal energy

Summary of contributions to the inner energy U:
Electronic energy                ...  -2419.84836761 Eh
Zero point energy                ...      0.23236449 Eh     145.81 kcal/mol
Thermal vibrational correction   ...      0.01548039 Eh       9.71 kcal/mol
Thermal rotational correction    ...      0.00141627 Eh       0.89 kcal/mol
Thermal translational correction ...      0.00141627 Eh       0.89 kcal/mol
-----------------------------------------------------------------------
Total thermal energy                  -2419.59769018 Eh


Summary of corrections to the electronic energy:
(perhaps to be used in another calculation)
Total thermal correction                  0.01831293 Eh      11.49 kcal/mol
Non-thermal (ZPE) correction              0.23236449 Eh     145.81 kcal/mol
-----------------------------------------------------------------------
Total correction                          0.25067742 Eh     157.30 kcal/mol


--------
ENTHALPY
--------

The enthalpy is H = U + kB*T
                kB is Boltzmann's constant
Total free energy                 ...  -2419.59769018 Eh 
Thermal Enthalpy correction       ...      0.00094421 Eh       0.59 kcal/mol
-----------------------------------------------------------------------
Total Enthalpy                    ...  -2419.59674597 Eh


Note: Only C1 symmetry has been detected, increase convergence thresholds 
      if your molecule has a higher symmetry. Symmetry factor of 1.0 is   
      used for the rotational entropy correction. 
 

Note: Rotational entropy computed according to Herzberg 
Infrared and Raman Spectra, Chapter V,1, Van Nostrand Reinhold, 1945 
Point Group:  C1, Symmetry Number:   1  
Rotational constants in cm-1:     0.007143     0.005321     0.003297 

Vibrational entropy computed according to the QRRHO of S. Grimme
Chem.Eur.J. 2012 18 9955


-------
ENTROPY
-------

The entropy contributions are T*S = T*(S(el)+S(vib)+S(rot)+S(trans))
     S(el)   - electronic entropy
     S(vib)  - vibrational entropy
     S(rot)  - rotational entropy
     S(trans)- translational entropy
The entropies will be listed as multiplied by the temperature to get
units of energy

Electronic entropy                ...      0.00000000 Eh      0.00 kcal/mol
Vibrational entropy               ...      0.02710454 Eh     17.01 kcal/mol
Rotational entropy                ...      0.01701339 Eh     10.68 kcal/mol
Translational entropy             ...      0.02081893 Eh     13.06 kcal/mol
-----------------------------------------------------------------------
Final entropy term                ...      0.06493686 Eh     40.75 kcal/mol

In case the symmetry of your molecule has not been determined correctly
or in case you have a reason to use a different symmetry number we print 
out the resulting rotational entropy values for sn=1,12 :
 --------------------------------------------------------
|  sn= 1 | S(rot)=       0.01701339 Eh     10.68 kcal/mol|
|  sn= 2 | S(rot)=       0.01635893 Eh     10.27 kcal/mol|
|  sn= 3 | S(rot)=       0.01597610 Eh     10.03 kcal/mol|
|  sn= 4 | S(rot)=       0.01570447 Eh      9.85 kcal/mol|
|  sn= 5 | S(rot)=       0.01549379 Eh      9.72 kcal/mol|
|  sn= 6 | S(rot)=       0.01532164 Eh      9.61 kcal/mol|
|  sn= 7 | S(rot)=       0.01517609 Eh      9.52 kcal/mol|
|  sn= 8 | S(rot)=       0.01505002 Eh      9.44 kcal/mol|
|  sn= 9 | S(rot)=       0.01493881 Eh      9.37 kcal/mol|
|  sn=10 | S(rot)=       0.01483933 Eh      9.31 kcal/mol|
|  sn=11 | S(rot)=       0.01474934 Eh      9.26 kcal/mol|
|  sn=12 | S(rot)=       0.01466718 Eh      9.20 kcal/mol|
 --------------------------------------------------------


-------------------
GIBBS FREE ENERGY
-------------------

The Gibbs free energy is G = H - T*S

Total enthalpy                    ...  -2419.59674597 Eh 
Total entropy correction          ...     -0.06493686 Eh    -40.75 kcal/mol
-----------------------------------------------------------------------
Final Gibbs free energy         ...  -2419.66168283 Eh

For completeness - the Gibbs free energy minus the electronic energy
G-E(el)                           ...      0.18668478 Eh    117.15 kcal/mol


Timings for individual modules:

Sum of individual times         ...     1170.070 sec (=  19.501 min)
GTO integral calculation        ...        6.361 sec (=   0.106 min)   0.5 %
SCF iterations                  ...        8.152 sec (=   0.136 min)   0.7 %
Analytical frequency calculation...     1155.556 sec (=  19.259 min)  98.8 %
                             ****ORCA TERMINATED NORMALLY****
TOTAL RUN TIME: 0 days 0 hours 19 minutes 31 seconds 34 msec
