----- GAMESS execution script 'rungms' -----
This job is running on host w012
under operating system Linux at Mon Dec 25 14:16:40 CST 2023
Available scratch disk space (Kbyte units) at beginning of the job is
Filesystem              1K-blocks    Used Available Use% Mounted on
/dev/mapper/system-root 932514944 2666420 929848524   1% /
GAMESS temporary binary files will be written to /job_dir/5_1685727
GAMESS supplementary output files will be written to /job_dir/5_1685727
Copying input file ./5.inp to your run's scratch directory...
 
Assuming a single but multicore node.
 

 Distributed Data Interface kickoff program.
 Initiating 16 compute processes on 1 nodes to run the following command:
 /share/apps/xeda-apps/xeda-td/gamess.00.x 5 

          *******************************************************
          *                                                     *
          *          GAMESS VERSION = 30 SEP 2020 (R2)          *
          *                                                     *
          *              doi.org/10.1063/5.0005188              *
          *                                                     *
          **************** 64 BIT LINUX VERSION *****************

  GAMESS HAS BEEN MADE POSSIBLE WITH IMPORTANT CONTRIBUTIONS FROM
  THE FOLLOWING INDIVIDUALS (IN ALPHABETICAL ORDER):

     IVANA ADAMOVIC, CHRISTINE AIKENS, TOMOKO AKAMA,
     YURI ALEXEEV, YURIKO AOKI, POOJA ARORA, TOSHIO ASADA,
     ANDREY ASADCHEV, KIM K. BALDRIDGE, PRADIPTA BANDYOPADHYAY,
     MARIA BARYSZ, ROB BELL, JONATHAN BENTZ, COLLEEN BERTONI,
     JERRY A. BOATZ, BRETT BODE, KURT BRORSEN, KURT R. BRORSEN,
     LAIMUTIS BYTAUTAS, CALEB CARLIN, LAURA CARRINGTON,
     GALINA CHABAN, BENOIT CHAMPAGNE, WEI CHEN, MAHITO CHIBA,
     DAN CHIPMAN, CHEOL HO CHOI, TANNER CULPITT,
     DIPAYAN DATTA, PAUL DAY, ALBERT DEFUSCO,
     NUWAN DESILVA, J. EMILIANO DEUSTUA,
     TIM DUDLEY, MICHEL DUPUIS, STEVEN T. ELBERT,
     DMITRI FEDOROV, ALEX FINDLATER, GRAHAM FLETCHER,
     MARK FREITAG, CHRISTIAN FRIEDL, DAVID GARMER,
     IGOR S. GERASIMOV, KURT GLAESEMANN, MARK S. GORDON,
     JEFFREY GOUR, FENG LONG GU, EMILIE B. GUIDEZ,
     ANASTASIA GUNINA, SHARON HAMMES-SCHIFFER, MASATAKE HARUTA,
     KIMIHIKO HIRAO, YASUHIRO IKABATA, TZVETELIN IORDANOV,
     STEPHAN IRLE, KAZUYA ISHIMURA, JOE IVANIC, FRANK JENSEN,
     JAN H. JENSEN, VISVALDAS KAIRYS, MUNEAKI KAMIYA,
     MICHIO KATOUDA, NAOAKI KAWAKAMI, DAN KEMP, BERNARD KIRTMAN,
     KAZUO KITAURA, MARIUSZ KLOBUKOWSKI, MASATO KOBAYASHI,
     PRAKASHAN KORAMBATH, JACEK KORCHOWIEC, SHIRO KOSEKI,
     KAROL KOWALSKI, JIMMY KROMANN, STANISLAW KUCHARSKI,
     HENRY KURTZ, SAROM SOK LEANG, HUI LI, SHUHUA LI, WEI LI,
     JESSE LUTZ, ALEKSANDR O. LYKHIN, MARCIN MAKOWSKI,
     JOANI MATO, NIKITA MATSUNAGA, BENEDETTA MENNUCCI,
     GRANT MERRILL, NORIYUKI MINEZAWA, VLADIMIR MIRONOV,
     EISAKU MIYOSHI, JOHN A. MONTGOMERY JR., HIROTOSHI MORI,
     JONATHAN MULLIN, MONIKA MUSIAL, SHIGERU NAGASE,
     TAKESHI NAGATA, HIROMI NAKAI, TAKAHITO NAKAJIMA,
     YUYA NAKAJIMA, HARUYUKI NAKANO, HIROYA NAKATA, SEAN NEDD,
     HEATHER NETZLOFF, KIET A. NGUYEN, YOSHIO NISHIMOTO,
     BOSILJKA NJEGIC, RYAN OLSON, MIKE PAK, ROBERTO PEVERATI,
     BUU PHAM, PIOTR PIECUCH, ANNA POMOGAEVA, DAVID POOLE,
     SPENCER PRUITT, OLIVIER QUINET, LUKE ROSKOP,
     KLAUS RUEDENBERG, ANDREW SAND, TOSAPORN SATTASATHUCHANA,
     NOZOMI SAWADA, MICHAEL W. SCHMIDT, PATRICK E. SCHNEIDER,
     JUNJI SEINO, PRACHI SHARMA, JUN SHEN, JIM SHOEMAKER,
     YINAN SHU, DEJUN SI, JONATHAN SKONE, LYUDMILA SLIPCHENKO,
     TONY SMITH, JIE SONG, MARK SPACKMAN, CASPER STEINMANN,
     WALT STEVENS, PEIFENG SU, SHUJUN SU, CHET SWALINA,
     TETSUYA TAKETSUGU, ZHEN TAO, NANDUN THELLAMUREGE
     SEIKEN TOKURA, JACOPO TOMASI, TSUGUKI TOUMA, TAKAO TSUNEDA,
     HIROAKI UMEDA, JORGE LUIS GALVEZ VALLEJO, YALI WANG,
     SIMON WEBB, AARON WEST, THERESA L. WINDUS, MARTA WLOCH,
     PENG XU, KIYOSHI YAGI, SUSUMU YANAGISAWA, YANG YANG,
     SOOHAENG YOO, TAKESHI YOSHIKAWA, FEDERICO ZAHARIEV,
     TOBY ZENG

  WHO ARE SUPPORTED BY THEIR INSTITUTION/UNIVERSITY/COMPANY/GROUP
  (IN ALPHABETICAL ORDER):

     EP ANALYTICS, FACULTES UNIVERSITAIRES NOTRE-DAME DE LA PAIX,
     INSTITUTE FOR MOLECULAR SCIENCE, IOWA STATE UNIVERSITY,
     JACKSON STATE UNIVERSITY, JOHANNES KEPLER UNIVERSITY LINZ,
     KYUSHU UNIVERSITY, MICHIGAN STATE UNIVERSITY,
     MIE UNIVERSITY, MOSCOW STATE UNIVERSITY,
     N. COPERNICUS UNIVERSITY, NAGOYA UNIVERSITY,
     NANJING UNIVERSITY, NAT. INST. OF ADVANCED INDUSTRIAL
     SCIENCE AND TECHNOLOGY, NATIONAL INST. OF STANDARDS AND
     TECHNOLOGY, NESMEYANOV INSTITUTE OF ORGANOELEMENT COMPOUNDS
     OF RUSSIAN ACADEMY OF SCIENCES, OSAKA PREFECTURE UNIVERSITY,
     PENNSYLVANIA STATE UNIVERSITY, TOKYO INSTITUTE OF TECHNOLOGY,
     UNIVERSITY OF AARHUS, UNIVERSITY OF ALBERTA,
     UNIVERSITY OF CALIFORNIA AT SANTA BARBARA,
     UNIVERSITY OF COPENHAGEN, UNIVERSITY OF IOWA,
     UNIVERSITY OF MEMPHIS, UNIVERSITY OF MINNESOTA,
     UNIVERSITY OF NEBRASKA, UNIVERSITY OF NEW ENGLAND,
     UNIVERSITY OF NOTRE DAME, UNIVERSITY OF PISA,
     UNIVERSITY OF SILESIA, UNIVERSITY OF TOKYO,
     UNIVERSITY OF ZURICH, WASEDA UNIVERSITY, YALE UNIVERSITY

  GAMESS SOFTWARE MANAGEMENT TEAM FOR THIS RELEASE:
     MARK S. GORDON (TEAM LEAD),
     BRETT BODE (SENIOR ADVISOR),
     GIUSEPPE BARCA,
     COLLEEN BERTONI,
     KRISTOPHER KEIPERT (ADVISOR),
     SAROM S. LEANG (DEVELOPMENT LEAD),
     BUU PHAM,
     JORGE LUIS GALVEZ VALLEJO (WEBSITE ADMINISTRATOR),
     PENG XU


 PARALLEL VERSION RUNNING ON       16 PROCESSORS IN        1 NODES.

 EXECUTION OF GAMESS BEGUN 14:16:40 25-DEC-2023    

            ECHO OF THE FIRST FEW INPUT CARDS -
 INPUT CARD> $CONTRL SCFTYP=UHF RUNTYP=EDA dfttyp=B3LYP ispher=1 icharg=0 mult=1 $END       
 INPUT CARD> $SYSTEM  mwords=150 memddi=150 $END                                            
 INPUT CARD> $BASIS gbasis=accd $END                                                        
 INPUT CARD> $LMOEDA MATOM(1)=5 5 MCHARG(1)=0 0 MMULT(1)=2 -2 edatyp=gks $end               
 INPUT CARD> $scf DIIS=.TRUE. ETHRSH=2.0 SWDIIS=0.005 $end                                  
 INPUT CARD> $data                                                                          
 INPUT CARD> EDA calculation with XEDA 1.0                                                  
 INPUT CARD> c1                                                                             
 INPUT CARD>C   6   -0.1554327328    0.9002481799   -1.2990998891                           
 INPUT CARD>C   6   -0.1554327328    0.9002481799    0.0414001109                           
 INPUT CARD>H   1   -0.1557478470    1.8396172552    0.5938941661                           
 INPUT CARD>H   1   -0.1557669789   -0.0258122101   -1.8690567316                           
 INPUT CARD>H   1   -0.1557489034    1.8316353113   -1.8599222776                           
 INPUT CARD>C   6   -0.1554327328   -0.3117401316    0.8468139007                           
 INPUT CARD>C   6    0.4454570249   -1.4494817678    0.4704047769                           
 INPUT CARD>H   1    0.9753685073   -1.5272123516   -0.4760665788                           
 INPUT CARD>H   1    0.4215667215   -2.3333088128    1.1030838803                           
 INPUT CARD>H   1   -0.6815192166   -0.2525534627    1.7993862023                           
 INPUT CARD> $end                                                                           
  150000000 WORDS OF MEMORY AVAILABLE

     BASIS OPTIONS
     -------------
     GBASIS=ACCD         IGAUSS=       0      POLAR=NONE    
     NDFUNC=       0     NFFUNC=       0     DIFFSP=       F
     NPFUNC=       0      DIFFS=       F     BASNAM=        


     RUN TITLE
     ---------
  EDA calculation with XEDA 1.0                                                  

 THE POINT GROUP OF THE MOLECULE IS C1      
 THE ORDER OF THE PRINCIPAL AXIS IS     0

 ATOM      ATOMIC                      COORDINATES (BOHR)
           CHARGE         X                   Y                   Z
 C           6.0    -0.2937252745        1.7012223810       -2.4549428211
 C           6.0    -0.2937252745        1.7012223810        0.0782348655
 H           1.0    -0.2943207540        3.4763725346        1.1222972396
 H           1.0    -0.2943569081       -0.0487780042       -3.5320050782
 H           1.0    -0.2943227503        3.4612888478       -3.5147434631
 C           6.0    -0.2937252745       -0.5891034281        1.6002462349
 C           6.0     0.8417917164       -2.7391233653        0.8889361317
 H           1.0     1.8431792159       -2.8860128696       -0.8996353858
 H           1.0     0.7966455892       -4.4093143009        2.0845262752
 H           1.0    -1.2878845747       -0.4772568418        3.4003468684

          INTERNUCLEAR DISTANCES (ANGS.)
          ------------------------------

                1 C          2 C          3 H          4 H          5 H     

   1 C       0.0000000    1.3405000 *  2.1132536 *  1.0874000 *  1.0872000 *
   2 C       1.3405000 *  0.0000000    1.0898000 *  2.1230717 *  2.1171936 *
   3 H       2.1132536 *  1.0898000 *  0.0000000    3.0896528    2.4538294 *
   4 H       1.0874000 *  2.1230717 *  3.0896528    0.0000000    1.8574700 *
   5 H       1.0872000 *  2.1171936 *  2.4538294 *  1.8574700 *  0.0000000  
   6 C       2.4645206 *  1.4552000 *  2.1661734 *  2.7308805 *  3.4526047  
   7 C       3.0022402    2.4629950 *  3.3458735    2.8038162 *  4.0691033  
   8 H       2.8015460 *  2.7274618 *  3.7094180    2.3396776 *  3.8047787  
   9 H       4.0693127    3.4519548    4.2433334    3.8067669    5.1438758  
  10 H       3.3475864    2.1670795 *  2.4711991 *  3.7128561    4.2439152  

                6 C          7 C          8 H          9 H         10 H     

   1 C       2.4645206 *  3.0022402    2.8015460 *  4.0693127    3.3475864  
   2 C       1.4552000 *  2.4629950 *  2.7274618 *  3.4519548    2.1670795 *
   3 H       2.1661734 *  3.3458735    3.7094180    4.2433334    2.4711991 *
   4 H       2.7308805 *  2.8038162 *  2.3396776 *  3.8067669    3.7128561  
   5 H       3.4526047    4.0691033    3.8047787    5.1438758    4.2439152  
   6 C       0.0000000    1.3406000 *  2.1227569 *  2.1178627 *  1.0898000 *
   7 C       1.3406000 *  0.0000000    1.0875000 *  1.0872000 *  2.1139783 *
   8 H       2.1227569 *  1.0875000 *  0.0000000    1.8574725 *  3.0899381  
   9 H       2.1178627 *  1.0872000 *  1.8574725 *  0.0000000    2.4558457 *
  10 H       1.0898000 *  2.1139783 *  3.0899381    2.4558457 *  0.0000000  

  * ... LESS THAN  3.000


     ATOMIC BASIS SET
     ----------------
 THE CONTRACTED PRIMITIVE FUNCTIONS HAVE BEEN UNNORMALIZED
 THE CONTRACTED BASIS FUNCTIONS ARE NOW NORMALIZED TO UNITY

  SHELL TYPE  PRIMITIVE        EXPONENT          CONTRACTION COEFFICIENT(S)

 C         

      1   S       1          6665.0000000    0.000691583963
      1   S       2          1000.0000000    0.005325796153
      1   S       3           228.0000000    0.027060721042
      1   S       4            64.7100000    0.101656846141
      1   S       5            21.0600000    0.274574823617
      1   S       6             7.4950000    0.448294318924
      1   S       7             2.7970000    0.284902610715
      1   S       8             0.5215000    0.015194859206

      2   S       9          6665.0000000   -0.000293269653
      2   S      10          1000.0000000   -0.002318035474
      2   S      11           228.0000000   -0.011499786039
      2   S      12            64.7100000   -0.046826727010
      2   S      13            21.0600000   -0.128466168750
      2   S      14             7.4950000   -0.301266272463
      2   S      15             2.7970000   -0.255630702330
      2   S      16             0.5215000    1.093793361012

      3   S      17             0.1596000    1.000000000000

      4   P      18             9.4390000    0.056979251590
      4   P      19             2.0020000    0.313207211501
      4   P      20             0.5456000    0.760376741738

      5   P      21             0.1517000    1.000000000000

      6   D      22             0.5500000    1.000000000000

      7   S      23             0.0469000    1.000000000000

      8   P      24             0.0404100    1.000000000000

      9   D      25             0.1510000    1.000000000000

 C         

     10   S      26          6665.0000000    0.000691583963
     10   S      27          1000.0000000    0.005325796153
     10   S      28           228.0000000    0.027060721042
     10   S      29            64.7100000    0.101656846141
     10   S      30            21.0600000    0.274574823617
     10   S      31             7.4950000    0.448294318924
     10   S      32             2.7970000    0.284902610715
     10   S      33             0.5215000    0.015194859206

     11   S      34          6665.0000000   -0.000293269653
     11   S      35          1000.0000000   -0.002318035474
     11   S      36           228.0000000   -0.011499786039
     11   S      37            64.7100000   -0.046826727010
     11   S      38            21.0600000   -0.128466168750
     11   S      39             7.4950000   -0.301266272463
     11   S      40             2.7970000   -0.255630702330
     11   S      41             0.5215000    1.093793361012

     12   S      42             0.1596000    1.000000000000

     13   P      43             9.4390000    0.056979251590
     13   P      44             2.0020000    0.313207211501
     13   P      45             0.5456000    0.760376741738

     14   P      46             0.1517000    1.000000000000

     15   D      47             0.5500000    1.000000000000

     16   S      48             0.0469000    1.000000000000

     17   P      49             0.0404100    1.000000000000

     18   D      50             0.1510000    1.000000000000

 H         

     19   S      51            13.0100000    0.033498726390
     19   S      52             1.9620000    0.234800801174
     19   S      53             0.4446000    0.813682957883

     20   S      54             0.1220000    1.000000000000

     21   P      55             0.7270000    1.000000000000

     22   S      56             0.0297400    1.000000000000

     23   P      57             0.1410000    1.000000000000

 H         

     24   S      58            13.0100000    0.033498726390
     24   S      59             1.9620000    0.234800801174
     24   S      60             0.4446000    0.813682957883

     25   S      61             0.1220000    1.000000000000

     26   P      62             0.7270000    1.000000000000

     27   S      63             0.0297400    1.000000000000

     28   P      64             0.1410000    1.000000000000

 H         

     29   S      65            13.0100000    0.033498726390
     29   S      66             1.9620000    0.234800801174
     29   S      67             0.4446000    0.813682957883

     30   S      68             0.1220000    1.000000000000

     31   P      69             0.7270000    1.000000000000

     32   S      70             0.0297400    1.000000000000

     33   P      71             0.1410000    1.000000000000

 C         

     34   S      72          6665.0000000    0.000691583963
     34   S      73          1000.0000000    0.005325796153
     34   S      74           228.0000000    0.027060721042
     34   S      75            64.7100000    0.101656846141
     34   S      76            21.0600000    0.274574823617
     34   S      77             7.4950000    0.448294318924
     34   S      78             2.7970000    0.284902610715
     34   S      79             0.5215000    0.015194859206

     35   S      80          6665.0000000   -0.000293269653
     35   S      81          1000.0000000   -0.002318035474
     35   S      82           228.0000000   -0.011499786039
     35   S      83            64.7100000   -0.046826727010
     35   S      84            21.0600000   -0.128466168750
     35   S      85             7.4950000   -0.301266272463
     35   S      86             2.7970000   -0.255630702330
     35   S      87             0.5215000    1.093793361012

     36   S      88             0.1596000    1.000000000000

     37   P      89             9.4390000    0.056979251590
     37   P      90             2.0020000    0.313207211501
     37   P      91             0.5456000    0.760376741738

     38   P      92             0.1517000    1.000000000000

     39   D      93             0.5500000    1.000000000000

     40   S      94             0.0469000    1.000000000000

     41   P      95             0.0404100    1.000000000000

     42   D      96             0.1510000    1.000000000000

 C         

     43   S      97          6665.0000000    0.000691583963
     43   S      98          1000.0000000    0.005325796153
     43   S      99           228.0000000    0.027060721042
     43   S     100            64.7100000    0.101656846141
     43   S     101            21.0600000    0.274574823617
     43   S     102             7.4950000    0.448294318924
     43   S     103             2.7970000    0.284902610715
     43   S     104             0.5215000    0.015194859206

     44   S     105          6665.0000000   -0.000293269653
     44   S     106          1000.0000000   -0.002318035474
     44   S     107           228.0000000   -0.011499786039
     44   S     108            64.7100000   -0.046826727010
     44   S     109            21.0600000   -0.128466168750
     44   S     110             7.4950000   -0.301266272463
     44   S     111             2.7970000   -0.255630702330
     44   S     112             0.5215000    1.093793361012

     45   S     113             0.1596000    1.000000000000

     46   P     114             9.4390000    0.056979251590
     46   P     115             2.0020000    0.313207211501
     46   P     116             0.5456000    0.760376741738

     47   P     117             0.1517000    1.000000000000

     48   D     118             0.5500000    1.000000000000

     49   S     119             0.0469000    1.000000000000

     50   P     120             0.0404100    1.000000000000

     51   D     121             0.1510000    1.000000000000

 H         

     52   S     122            13.0100000    0.033498726390
     52   S     123             1.9620000    0.234800801174
     52   S     124             0.4446000    0.813682957883

     53   S     125             0.1220000    1.000000000000

     54   P     126             0.7270000    1.000000000000

     55   S     127             0.0297400    1.000000000000

     56   P     128             0.1410000    1.000000000000

 H         

     57   S     129            13.0100000    0.033498726390
     57   S     130             1.9620000    0.234800801174
     57   S     131             0.4446000    0.813682957883

     58   S     132             0.1220000    1.000000000000

     59   P     133             0.7270000    1.000000000000

     60   S     134             0.0297400    1.000000000000

     61   P     135             0.1410000    1.000000000000

 H         

     62   S     136            13.0100000    0.033498726390
     62   S     137             1.9620000    0.234800801174
     62   S     138             0.4446000    0.813682957883

     63   S     139             0.1220000    1.000000000000

     64   P     140             0.7270000    1.000000000000

     65   S     141             0.0297400    1.000000000000

     66   P     142             0.1410000    1.000000000000

 TOTAL NUMBER OF BASIS SET SHELLS             =   66
 NUMBER OF CARTESIAN GAUSSIAN BASIS FUNCTIONS =  154
 NOTE: THIS RUN WILL RESTRICT THE MO VARIATION SPACE TO SPHERICAL HARMONICS.
 THE NUMBER OF ORBITALS KEPT IN THE VARIATIONAL SPACE WILL BE PRINTED LATER.
 NUMBER OF ELECTRONS                          =   30
 CHARGE OF MOLECULE                           =    0
 SPIN MULTIPLICITY                            =    1
 NUMBER OF OCCUPIED ORBITALS (ALPHA)          =   15
 NUMBER OF OCCUPIED ORBITALS (BETA )          =   15
 TOTAL NUMBER OF ATOMS                        =   10
 THE NUCLEAR REPULSION ENERGY IS      105.3445045070

 SELECTED MURRAY-HANDY-LAMING RADIAL GRID

 LEGACY BECKE'S FUZZY CELL METHOD

 SELECTED ORIGINAL BECKE'S PARTITION FUNCTION

     LEBEDEV GRID-BASED DFT OPTIONS
     ------------------------------
     DFTTYP=B3LYP   
     NRAD  =      96     NLEB  =     302
     NRAD0 =      24     NLEB0 =     110
     SWOFF =    5.00E-03 (PURE SCF -> DFT)
     SWITCH=    3.00E-04 (COARSE -> TIGHT GRID)
     THRESH=    0.00E+00 GTHRE=    1.00E+00

 GRIMME'S EMPIRICAL DISPERSION CORRECTION= F

     $CONTRL OPTIONS
     ---------------
 SCFTYP=UHF          RUNTYP=LMOEDA       EXETYP=RUN     
 MPLEVL=       0     CITYP =NONE         CCTYP =NONE         VBTYP =NONE    
 DFTTYP=B3LYP        TDDFT =NONE    
 MULT  =       1     ICHARG=       0     NZVAR =       0     COORD =UNIQUE  
 PP    =NONE         RELWFN=NONE         LOCAL =NONE         NUMGRD=       F
 ISPHER=       1     NOSYM =       0     MAXIT =      30     UNITS =ANGS    
 PLTORB=       F     MOLPLT=       F     AIMPAC=       F     FRIEND=        
 NPRINT=       7     IREST =       0     GEOM  =INPUT   
 NORMF =       0     NORMP =       0     ITOL  =      20     ICUT  =       9
 INTTYP=BEST         GRDTYP=BEST         QMTTOL= 1.0E-06

     $SYSTEM OPTIONS
     ---------------
  REPLICATED MEMORY=   150000000 WORDS (ON EVERY NODE).
 DISTRIBUTED MEMDDI=         150 MILLION WORDS IN AGGREGATE,
 MEMDDI DISTRIBUTED OVER  16 PROCESSORS IS     9375000 WORDS/PROCESSOR.
 TOTAL MEMORY REQUESTED ON EACH PROCESSOR=   159375000 WORDS.
 TIMLIM=      525600.00 MINUTES, OR     365.0 DAYS.
 PARALL= T  BALTYP=  DLB     KDIAG=    0  COREFL= F
 MXSEQ2=     300 MXSEQ3=     150  mem10=         0  mem22=         0

 Using Gaussians for PCM contribution to MEP, params: 0.10000E+01 0.10000E-07

          ----------------
          PROPERTIES INPUT
          ----------------

     MOMENTS            FIELD           POTENTIAL          DENSITY
 IEMOM =       1   IEFLD =       0   IEPOT =       0   IEDEN =       0
 WHERE =COMASS     WHERE =NUCLEI     WHERE =NUCLEI     WHERE =NUCLEI  
 OUTPUT=BOTH       OUTPUT=BOTH       OUTPUT=BOTH       OUTPUT=BOTH    
 IEMINT=       0   IEFINT=       0                     IEDINT=       0
                                                       MORB  =       0
          EXTRAPOLATION IN EFFECT
          DIIS IN EFFECT
          DIIS or SOSCF will be reset if energy rises
 ORBITAL PRINTING OPTION: NPREO=     1   154     2     1

     -------------------------------
     INTEGRAL TRANSFORMATION OPTIONS
     -------------------------------
     NWORD  =            0
     CUTOFF = 1.0E-09     MPTRAN =       0
     DIRTRF =       F     AOINTS =DUP     

          -----------------------------
          LOCALIZATION INPUT PARAMETERS
          -----------------------------
           LOCAL=RUEDNBRG      NOUTA=       0
          PRTLOC=       F      NOUTB=       0
          MAXLOC=     250     CVGLOC=1.00E-06
           FCORE=       F     SYMLOC=       F
          MOIDON=       F     EDCOMP=       F
          DIPDCM=       F      NPROT=       0
          QADDCM=       F     DEPRNT=       F
          POLNUM=       F     ORIENT=       F
          POLDYN=       F      VMTOL=1.50E-01
          NPRDTL=       2     IBOYAL=       1

          ----------------------
          INTEGRAL INPUT OPTIONS
          ----------------------
 NOPK  =       1 NORDER=       0 SCHWRZ=       T

     ------------------------------------------
     THE POINT GROUP IS C1 , NAXIS= 0, ORDER= 1
     ------------------------------------------

 -- VARIATIONAL SPACE WILL BE RESTRICTED TO PURE SPHERICAL HARMONICS ONLY --
 AFTER EXCLUDING CONTAMINANT COMBINATIONS FROM THE CARTESIAN GAUSSIAN BASIS
 SET, THE NUMBER OF SPHERICAL HARMONICS KEPT IN THE VARIATION SPACE IS  146

     DIMENSIONS OF THE SYMMETRY SUBSPACES ARE
 A   =  146

 ..... DONE SETTING UP THE RUN .....
 CPU     0: STEP CPU TIME=     0.03 TOTAL CPU TIME=          0.0 (      0.0 MIN)
 TOTAL WALL CLOCK TIME=          0.0 SECONDS, CPU UTILIZATION IS    71.45%

          --------------
          GKSEDA OPTIONS
          --------------
          NMOL  =       2          EDATYP=GKS     
          SUPBAS=       T          RDVECM=       F          ITRTN =       T

 *******************
 GKSEDA IS BEGINNING
 *******************

 NMOL =  2

 MONOMER     ATOM   CHARGE ELECTRON MULTIPLE
 -------------------------------------------
       1        5        0       15        2
       2        5        0       15       -2
 -------------------------------------------

 SAVING MOL INFO REQUIRES    598670 WORDS OF MEMORY.

          ********************
          1 ELECTRON INTEGRALS
          ********************
 ...... END OF ONE-ELECTRON INTEGRALS ......
 CPU     0: STEP CPU TIME=     0.01 TOTAL CPU TIME=          0.0 (      0.0 MIN)
 TOTAL WALL CLOCK TIME=          0.0 SECONDS, CPU UTILIZATION IS    74.34%

          -------------
          GUESS OPTIONS
          -------------
          GUESS =HUCKEL            NORB  =       0          NORDER=       0
          MIX   =       F          PRTMO =       F          PUNMO =       F
          TOLZ  = 1.0E-08          TOLE  = 1.0E-05
          SYMDEN=       F          PURIFY=       F

 INITIAL GUESS ORBITALS GENERATED BY HUCKEL   ROUTINE.
 HUCKEL GUESS REQUIRES    180842 WORDS.

 STATISTICS FOR GENERATION OF SYMMETRY ORBITAL -Q- MATRIX
 NUMBER OF CARTESIAN ATOMIC ORBITALS=        154
 NUMBER OF SPHERICAL CONTAMINANTS DROPPED=     8
 NUMBER OF LINEARLY DEPENDENT MOS DROPPED=     0
 TOTAL NUMBER OF MOS IN VARIATION SPACE=     146

 SYMMETRIES FOR INITIAL GUESS ORBITALS FOLLOW.  ALPHA SET(S).
    15 ORBITALS ARE OCCUPIED (    4 CORE ORBITALS).
     5=A        6=A        7=A        8=A        9=A       10=A       11=A   
    12=A       13=A       14=A       15=A       16=A       17=A       18=A   
    19=A       20=A       21=A       22=A       23=A       24=A       25=A   

 SYMMETRIES FOR INITIAL GUESS ORBITALS FOLLOW.   BETA SET(S).
    15 ORBITALS ARE OCCUPIED (    4 CORE ORBITALS).
     5=A        6=A        7=A        8=A        9=A       10=A       11=A   
    12=A       13=A       14=A       15=A       16=A       17=A       18=A   
    19=A       20=A       21=A       22=A       23=A       24=A       25=A   
 ...... END OF INITIAL ORBITAL SELECTION ......
 CPU     0: STEP CPU TIME=     0.01 TOTAL CPU TIME=          0.0 (      0.0 MIN)
 TOTAL WALL CLOCK TIME=          0.1 SECONDS, CPU UTILIZATION IS    79.98%

          -------------------------
          MONOMER  1 WITH OWN BASIS
          -------------------------

     ------------------------------------------
     THE POINT GROUP IS C1 , NAXIS= 0, ORDER= 1
     ------------------------------------------

 -- VARIATIONAL SPACE WILL BE RESTRICTED TO PURE SPHERICAL HARMONICS ONLY --
 AFTER EXCLUDING CONTAMINANT COMBINATIONS FROM THE CARTESIAN GAUSSIAN BASIS
 SET, THE NUMBER OF SPHERICAL HARMONICS KEPT IN THE VARIATION SPACE IS   73

     DIMENSIONS OF THE SYMMETRY SUBSPACES ARE
 A   =   73

          ********************
          1 ELECTRON INTEGRALS
          ********************
 ...... END OF ONE-ELECTRON INTEGRALS ......
 CPU     0: STEP CPU TIME=     0.01 TOTAL CPU TIME=          0.1 (      0.0 MIN)
 TOTAL WALL CLOCK TIME=          0.1 SECONDS, CPU UTILIZATION IS    79.19%

          -------------
          GUESS OPTIONS
          -------------
          GUESS =HUCKEL            NORB  =       0          NORDER=       0
          MIX   =       F          PRTMO =       F          PUNMO =       F
          TOLZ  = 1.0E-08          TOLE  = 1.0E-05
          SYMDEN=       F          PURIFY=       F

 INITIAL GUESS ORBITALS GENERATED BY HUCKEL   ROUTINE.
 HUCKEL GUESS REQUIRES     47410 WORDS.

 STATISTICS FOR GENERATION OF SYMMETRY ORBITAL -Q- MATRIX
 NUMBER OF CARTESIAN ATOMIC ORBITALS=         77
 NUMBER OF SPHERICAL CONTAMINANTS DROPPED=     4
 NUMBER OF LINEARLY DEPENDENT MOS DROPPED=     0
 TOTAL NUMBER OF MOS IN VARIATION SPACE=      73

 SYMMETRIES FOR INITIAL GUESS ORBITALS FOLLOW.  ALPHA SET(S).
     8 ORBITALS ARE OCCUPIED (    2 CORE ORBITALS).
     3=A        4=A        5=A        6=A        7=A        8=A        9=A   
    10=A       11=A       12=A       13=A       14=A       15=A       16=A   
    17=A       18=A   

 SYMMETRIES FOR INITIAL GUESS ORBITALS FOLLOW.   BETA SET(S).
     7 ORBITALS ARE OCCUPIED (    2 CORE ORBITALS).
     3=A        4=A        5=A        6=A        7=A        8=A        9=A   
    10=A       11=A       12=A       13=A       14=A       15=A       16=A   
    17=A   
 ...... END OF INITIAL ORBITAL SELECTION ......
 CPU     0: STEP CPU TIME=     0.00 TOTAL CPU TIME=          0.1 (      0.0 MIN)
 TOTAL WALL CLOCK TIME=          0.1 SECONDS, CPU UTILIZATION IS    80.09%

                    ----------------------
                    AO INTEGRAL TECHNOLOGY
                    ----------------------
     S,P,L SHELL ROTATED AXIS INTEGRALS, REPROGRAMMED BY
        KAZUYA ISHIMURA (IMS) AND JOSE SIERRA (SYNSTAR).
     S,P,D,L SHELL ROTATED AXIS INTEGRALS PROGRAMMED BY
        KAZUYA ISHIMURA (INSTITUTE FOR MOLECULAR SCIENCE).
     S,P,D,F,G SHELL TO TOTAL QUARTET ANGULAR MOMENTUM SUM 5,
        ERIC PROGRAM BY GRAHAM FLETCHER (ELORET AND NASA ADVANCED
        SUPERCOMPUTING DIVISION, AMES RESEARCH CENTER).
     S,P,D,F,G,L SHELL GENERAL RYS QUADRATURE PROGRAMMED BY
        MICHEL DUPUIS (PACIFIC NORTHWEST NATIONAL LABORATORY).

          --------------------
          2 ELECTRON INTEGRALS
          --------------------

 THE -PK- OPTION IS OFF, THE INTEGRALS ARE NOT IN SUPERMATRIX FORM.
 STORING   15000 INTEGRALS/RECORD ON DISK, USING 12 BYTES/INTEGRAL.
 TWO ELECTRON INTEGRAL EVALUATION REQUIRES   90957 WORDS OF MEMORY.
 SCHWARZ INEQUALITY OVERHEAD:      3003 INTEGRALS, T=        0.00
 II,JST,KST,LST =  1  1  1  1 NREC =         1 INTLOC =    1
 II,JST,KST,LST =  2  1  1  1 NREC =         1 INTLOC =    1
 II,JST,KST,LST =  3  1  1  1 NREC =         1 INTLOC =    1
 II,JST,KST,LST =  4  1  1  1 NREC =         1 INTLOC =    1
 II,JST,KST,LST =  5  1  1  1 NREC =         1 INTLOC =    1
 II,JST,KST,LST =  6  1  1  1 NREC =         1 INTLOC =    1
 II,JST,KST,LST =  7  1  1  1 NREC =         1 INTLOC =    4
 II,JST,KST,LST =  8  1  1  1 NREC =         1 INTLOC =  250
 II,JST,KST,LST =  9  1  1  1 NREC =         1 INTLOC =  250
 II,JST,KST,LST = 10  1  1  1 NREC =         1 INTLOC =  250
 II,JST,KST,LST = 11  1  1  1 NREC =         1 INTLOC =  288
 II,JST,KST,LST = 12  1  1  1 NREC =         1 INTLOC = 1614
 II,JST,KST,LST = 13  1  1  1 NREC =         1 INTLOC = 1614
 II,JST,KST,LST = 14  1  1  1 NREC =         1 INTLOC = 1614
 II,JST,KST,LST = 15  1  1  1 NREC =         1 INTLOC = 2918
 II,JST,KST,LST = 16  1  1  1 NREC =         1 INTLOC = 5506
 II,JST,KST,LST = 17  1  1  1 NREC =         1 INTLOC = 5506
 II,JST,KST,LST = 18  1  1  1 NREC =         1 INTLOC = 9265
 II,JST,KST,LST = 19  1  1  1 NREC =         1 INTLOC = 9265
 II,JST,KST,LST = 20  1  1  1 NREC =         1 INTLOC =11892
 II,JST,KST,LST = 21  1  1  1 NREC =         2 INTLOC =  555
 II,JST,KST,LST = 22  1  1  1 NREC =         3 INTLOC = 2025
 II,JST,KST,LST = 23  1  1  1 NREC =         3 INTLOC =14341
 II,JST,KST,LST = 24  1  1  1 NREC =         6 INTLOC = 5575
 II,JST,KST,LST = 25  1  1  1 NREC =         6 INTLOC = 9122
 II,JST,KST,LST = 26  1  1  1 NREC =         6 INTLOC =13120
 II,JST,KST,LST = 27  1  1  1 NREC =        11 INTLOC = 3529
 II,JST,KST,LST = 28  1  1  1 NREC =        11 INTLOC = 3529
 II,JST,KST,LST = 29  1  1  1 NREC =        14 INTLOC =  765
 II,JST,KST,LST = 30  1  1  1 NREC =        15 INTLOC = 3012
 II,JST,KST,LST = 31  1  1  1 NREC =        15 INTLOC = 7891
 II,JST,KST,LST = 32  1  1  1 NREC =        19 INTLOC = 8253
 II,JST,KST,LST = 33  1  1  1 NREC =        19 INTLOC = 8253
 SCHWARZ INEQUALITY TEST SKIPPED           0 INTEGRAL BLOCKS.
 TOTAL NUMBER OF NONZERO TWO-ELECTRON INTEGRALS =             3856782
        266 INTEGRAL RECORDS WERE STORED ON DISK FILE  8.
  ...... END OF TWO-ELECTRON INTEGRALS .....
 CPU     0: STEP CPU TIME=     0.03 TOTAL CPU TIME=          0.1 (      0.0 MIN)
 TOTAL WALL CLOCK TIME=          0.1 SECONDS, CPU UTILIZATION IS    83.38%

          ---------------------------
              U-B3LYP SCF CALCULATION
          ---------------------------

     NUCLEAR ENERGY =        28.1345406619
     MAXIT = 30     NPUNCH=  2     MULT=  2
     EXTRAP=T  DAMP=F  SHIFT=F  RSTRCT=F  DIIS=T  SOSCF=T
         DENSITY MATRIX CONVERGENCE THRESHOLD=  1.00E-05
     COARSE -> FINE DFT GRID SWITCH THRESHOLD=  3.00E-04 (SWITCH IN $DFT)
                   HF -> DFT SWITCH THRESHOLD=  5.00E-03 (SWOFF IN $DFT)
     SOSCF WILL OPTIMIZE     520 ALPHA AND     462 BETA ROTATION ANGLES.
     SOGTOL= 2.500E-01
     MEMORY REQUIRED FOR UHF/ROHF ITERS=    298732 WORDS.

     EXCHANGE FUNCTIONAL   =B88&HFX   
     CORRELATION FUNCTIONAL=LYP88&VWN5
     DFT THRESHOLD         =.690E-08
     GRID CHANGE THRESHOLD =.300E-03
 FOR AN EULER-MACLAURIN QUADRATURE USING  96 RADIAL POINTS:
 SMALLEST GAUSSIAN PRIMITIVE EXPONENT=        0.0297400000 OF TYPE -S-
 ON ATOM NUMBER   3 HAS RADIAL NORMALIZATION=  1.000000
  LARGEST GAUSSIAN PRIMITIVE EXPONENT=     6665.0000000000 OF TYPE -S-
 ON ATOM NUMBER   1 HAS RADIAL NORMALIZATION=  1.000000
 DFT IS SWITCHED OFF, PERFORMING PURE SCF UNTIL SWOFF THRESHOLD IS REACHED.

 ITER EX      TOTAL ENERGY        E CHANGE  DENSITY CHANGE    DIIS ERROR
          * * *   INITIATING DIIS PROCEDURE   * * *
   1  0      -77.1756389039   -77.1756389039   0.507674571   0.362218221
   2  1      -77.3708611071    -0.1952222032   0.159339533   0.054671622
   3  2      -77.3870756203    -0.0162145132   0.031049006   0.025332616
   4  3      -77.3913901183    -0.0043144981   0.021342116   0.010884402
   5  4      -77.3927132934    -0.0013231751   0.012503158   0.008055325
   6  5      -77.3933049747    -0.0005916813   0.025619420   0.007958499
   7  6      -77.3943401047    -0.0010351300   0.069897886   0.007526423
   8  7      -77.3965603173    -0.0022202126   0.074220020   0.005017779
   9  8      -77.3975197727    -0.0009594554   0.025169627   0.000909476
  10  9      -77.3974160797     0.0001036930   0.025983052   0.001979690
  11 10      -77.3975288448    -0.0001127651   0.005341791   0.000240250
  12 11      -77.3975282794     0.0000005654   0.004145910   0.000283200
 CONVERGED TO SWOFF, SO DFT CALCULATION IS NOW SWITCHED ON.
          * * *   INITIATING DIIS PROCEDURE   * * *
  13 12      -77.8326634919    -0.4351352125   0.402490352   0.063781120
  14 13      -77.8486547363    -0.0159912444   0.059895723   0.015885346
  15 14      -77.8511270834    -0.0024723472   0.024301716   0.011978511
  16 15      -77.8524871442    -0.0013600608   0.047533501   0.006940418
  17 16      -77.8533657787    -0.0008786345   0.008251189   0.002276549
  18 17      -77.8534116431    -0.0000458644   0.004200120   0.001596684
         SWDIIS THRESHOLD HAS BEEN REACHED: SWITCHING DIIS OFF.
          ---------------START SECOND ORDER SCF---------------
  19 18      -77.8534272594    -0.0000156163   0.000728800   0.000259120
  20 19      -77.8534274913    -0.0000002319   0.000777981   0.000362464
  21 20      -77.8534280817    -0.0000005904   0.000276030   0.000046821
  22 21      -77.8534281487    -0.0000000669   0.000198951   0.000036203
  23 22      -77.8534281676    -0.0000000190   0.000049508   0.000009181
  24 23      -77.8534281688    -0.0000000012   0.000010325   0.000002269
  25 24      -77.8534281689    -0.0000000000   0.000004786   0.000001423
  26 25      -77.8534281689    -0.0000000000   0.000000748   0.000000160

          -----------------
          DENSITY CONVERGED
          -----------------
     TIME TO FORM FOCK OPERATORS=       1.4 SECONDS (       0.1 SEC/ITER)
     TIME TO SOLVE SCF EQUATIONS=       0.1 SECONDS (       0.0 SEC/ITER)

 FINAL U-B3LYP ENERGY IS      -77.8534281689 AFTER  26 ITERATIONS
 DFT EXCHANGE + CORRELATION ENERGY =        -9.5383523901
 TOTAL ELECTRON NUMBER             =        14.9999862988

          --------------------
          SPIN SZ   =    0.500
          S-SQUARED =    0.762
          --------------------

  ----- ALPHA SET ----- 

          ------------
          EIGENVECTORS
          ------------

                      1          2          3          4          5
                  -10.2251   -10.1984    -0.7710    -0.5780    -0.4672
                     A          A          A          A          A   
    1  C  1  S    0.014119   1.009737  -0.020585   0.011582  -0.002182
    2  C  1  S   -0.001516   0.022418   0.316677  -0.225524   0.004039
    3  C  1  S    0.041703  -0.074557   0.082170  -0.325778  -0.029822
    4  C  1  X   -0.000000  -0.000001  -0.000019   0.000053  -0.000055
    5  C  1  Y   -0.000017  -0.000009   0.008087   0.034442   0.344516
    6  C  1  Z   -0.001071  -0.000291   0.113919   0.205894  -0.209427
    7  C  1  X    0.000004   0.000004   0.000004  -0.000042   0.000009
    8  C  1  Y   -0.001727  -0.000467   0.022966   0.026749  -0.024485
    9  C  1  Z    0.038960  -0.009428  -0.035898  -0.240010   0.041978
   10  C  1 XX    0.000256  -0.001679  -0.006029   0.001219  -0.001782
   11  C  1 YY    0.000855   0.000873  -0.008034  -0.011455   0.008988
   12  C  1 ZZ   -0.001110   0.000807   0.014063   0.010236  -0.007206
   13  C  1 XY    0.000000   0.000000  -0.000000  -0.000001  -0.000010
   14  C  1 XZ    0.000000   0.000001  -0.000001  -0.000004   0.000000
   15  C  1 YZ    0.000503   0.000068   0.000117   0.002171  -0.005918
   16  C  1  S    0.015891  -0.034820   0.014919   0.153716  -0.061578
   17  C  1  X    0.000001   0.000001  -0.000006  -0.000007   0.000002
   18  C  1  Y    0.000861   0.000903  -0.003930   0.007115  -0.062077
   19  C  1  Z    0.006380  -0.003901  -0.002191   0.015539  -0.008994
   20  C  1 XX   -0.002130   0.004876   0.007245  -0.008509  -0.006333
   21  C  1 YY   -0.004331   0.001461  -0.007884   0.106083  -0.046989
   22  C  1 ZZ    0.006460  -0.006337   0.000639  -0.097574   0.053322
   23  C  1 XY    0.000000   0.000000  -0.000007  -0.000010   0.000022
   24  C  1 XZ   -0.000001  -0.000002   0.000005  -0.000017   0.000009
   25  C  1 YZ   -0.003341  -0.001192   0.024190   0.023203   0.104537
   26  C  2  S    1.010054  -0.015764  -0.018215  -0.006825  -0.000065
   27  C  2  S    0.022951  -0.001461   0.306372   0.267592  -0.073126
   28  C  2  S   -0.091285   0.025445   0.256793   0.487469  -0.250628
   29  C  2  X   -0.000000  -0.000000  -0.000013  -0.000023  -0.000054
   30  C  2  Y    0.000927   0.000082   0.024273   0.100479   0.253876
   31  C  2  Z   -0.000241   0.000982  -0.131338   0.123835   0.159997
   32  C  2  X    0.000002   0.000002   0.000003   0.000050  -0.000025
   33  C  2  Y   -0.002577  -0.000932  -0.059382  -0.097883   0.007940
   34  C  2  Z    0.031168  -0.017149  -0.098879  -0.220818   0.059371
   35  C  2 XX   -0.000924   0.000703  -0.011643  -0.001262  -0.000566
   36  C  2 YY    0.000486   0.000633  -0.003988   0.009949   0.005499
   37  C  2 ZZ    0.000438  -0.001336   0.015631  -0.008687  -0.004933
   38  C  2 XY   -0.000000  -0.000000   0.000000  -0.000002  -0.000003
   39  C  2 XZ   -0.000000   0.000000   0.000001  -0.000004   0.000002
   40  C  2 YZ    0.000962   0.000028  -0.006297  -0.001627  -0.010047
   41  C  2  S   -0.030005   0.020511  -0.019593  -0.134993   0.022857
   42  C  2  X   -0.000000   0.000000   0.000004   0.000007  -0.000001
   43  C  2  Y   -0.001433  -0.001411  -0.000683  -0.026234   0.018918
   44  C  2  Z    0.004317  -0.005951   0.006508   0.008111  -0.013668
   45  C  2 XX    0.006077  -0.001038  -0.007013   0.007337   0.000792
   46  C  2 YY    0.004482  -0.001705  -0.018037  -0.059875  -0.008033
   47  C  2 ZZ   -0.010559   0.002744   0.025050   0.052539   0.007241
   48  C  2 XY    0.000000  -0.000000   0.000010   0.000018  -0.000005
   49  C  2 XZ    0.000001  -0.000001   0.000007  -0.000005   0.000006
   50  C  2 YZ   -0.004496  -0.001240   0.007594  -0.022329   0.011375
   51  H  3  S   -0.000761  -0.000066   0.123266   0.264030   0.188225
   52  H  3  S    0.021280   0.007204   0.071378   0.281765   0.108543
   53  H  3  X   -0.000001   0.000000   0.000004   0.000007   0.000004
   54  H  3  Y    0.001761  -0.000041  -0.012616  -0.016944  -0.005368
   55  H  3  Z    0.000805   0.000176  -0.011604  -0.010550  -0.005192
   56  H  3  S    0.001317   0.002082   0.003800   0.025159   0.010132
   57  H  3  X    0.000003   0.000001  -0.000000   0.000020   0.000011
   58  H  3  Y   -0.007622  -0.002199  -0.009343  -0.042408  -0.012658
   59  H  3  Z   -0.001889  -0.000879  -0.018692  -0.032607  -0.010855
   60  H  4  S   -0.000373  -0.000924   0.117536  -0.231510  -0.141133
   61  H  4  S    0.017981   0.022140  -0.012053  -0.224486  -0.204504
   62  H  4  X   -0.000000  -0.000001   0.000005  -0.000007  -0.000006
   63  H  4  Y   -0.000208  -0.001594   0.014702  -0.016923   0.000697
   64  H  4  Z   -0.000588  -0.001040   0.012854  -0.005402  -0.010109
   65  H  4  S    0.001920   0.002022  -0.000196  -0.013865  -0.044061
   66  H  4  X    0.000002   0.000003  -0.000005  -0.000036  -0.000017
   67  H  4  Y    0.004933   0.006814  -0.009736  -0.021347  -0.051802
   68  H  4  Z    0.002349   0.003014   0.008751  -0.033366   0.010889
   69  H  5  S   -0.000199  -0.000961   0.127511  -0.199671   0.344889
   70  H  5  S    0.009372   0.019145   0.015186  -0.220122   0.445635
   71  H  5  X   -0.000000  -0.000001   0.000005  -0.000004   0.000006
   72  H  5  Y   -0.000086   0.001563  -0.014932   0.016626  -0.010402
   73  H  5  Z   -0.000388  -0.000934   0.011541  -0.004604   0.004886
   74  H  5  S    0.001695   0.001031   0.002890  -0.011438   0.048064
   75  H  5  X    0.000000   0.000002   0.000008  -0.000021   0.000038
   76  H  5  Y   -0.002439  -0.006048   0.000546   0.018720  -0.075145
   77  H  5  Z    0.001953   0.002970  -0.001570  -0.052491   0.040785

                      6          7          8          9         10
                   -0.4168    -0.2871    -0.2698    -0.0163    -0.0016
                     A          A          A          A          A   
    1  C  1  S    0.000193  -0.000007   0.000515  -0.000007  -0.003289
    2  C  1  S   -0.033990   0.000005   0.050095   0.000079   0.082699
    3  C  1  S   -0.176597   0.000249   0.016878   0.000465   0.341139
    4  C  1  X   -0.000099   0.394579   0.000244   0.399063  -0.000044
    5  C  1  Y   -0.251414   0.000057  -0.134205  -0.000010   0.029814
    6  C  1  Z   -0.323473  -0.000195   0.111849  -0.000087  -0.095685
    7  C  1  X   -0.000018   0.215604   0.000127   0.337960  -0.000113
    8  C  1  Y    0.069546  -0.000017   0.033988  -0.000007   0.044935
    9  C  1  Z   -0.094558   0.000020  -0.024893   0.000134  -0.284026
   10  C  1 XX   -0.001251  -0.000005   0.000550  -0.000003   0.000880
   11  C  1 YY    0.010972   0.000004  -0.001050  -0.000001  -0.002742
   12  C  1 ZZ   -0.009721   0.000001   0.000500   0.000004   0.001862
   13  C  1 XY    0.000007   0.000665   0.000009   0.000041   0.000001
   14  C  1 XZ   -0.000002   0.021988   0.000009  -0.030535   0.000001
   15  C  1 YZ    0.013601  -0.000016   0.041221  -0.000010   0.001296
   16  C  1  S   -0.041228   0.000271   0.165457   0.000493   1.328531
   17  C  1  X   -0.000010   0.028188   0.000021   0.590485  -0.000136
   18  C  1  Y    0.054579  -0.000025   0.020025  -0.000033   0.031123
   19  C  1  Z   -0.015026   0.000065   0.042411   0.000003  -0.285494
   20  C  1 XX    0.000089  -0.000012  -0.005543  -0.000018  -0.039367
   21  C  1 YY   -0.044564  -0.000021   0.030350  -0.000035   0.025141
   22  C  1 ZZ    0.044475   0.000032  -0.024807   0.000053   0.014226
   23  C  1 XY   -0.000040   0.004482  -0.000024  -0.003431  -0.000011
   24  C  1 XZ    0.000016   0.003806  -0.000005  -0.042758   0.000026
   25  C  1 YZ   -0.050647   0.000017  -0.034442   0.000023   0.028936
   26  C  2  S   -0.000909   0.000001  -0.000638   0.000005  -0.002789
   27  C  2  S    0.029078   0.000091  -0.148629  -0.000041   0.055754
   28  C  2  S   -0.057309   0.000103  -0.306352  -0.000382   0.375345
   29  C  2  X   -0.000099   0.441326   0.000195  -0.409402  -0.000004
   30  C  2  Y    0.035371  -0.000183   0.476837  -0.000098   0.041398
   31  C  2  Z    0.376628   0.000257  -0.254990   0.000000   0.082231
   32  C  2  X   -0.000022   0.253320   0.000148  -0.349450  -0.000031
   33  C  2  Y   -0.072048  -0.000073   0.245368  -0.000099   0.093146
   34  C  2  Z    0.032499   0.000257  -0.226260   0.000195  -0.008985
   35  C  2 XX   -0.001833   0.000002  -0.004835   0.000003  -0.001750
   36  C  2 YY    0.011021   0.000003  -0.000085  -0.000001  -0.004792
   37  C  2 ZZ   -0.009187  -0.000005   0.004920  -0.000002   0.006542
   38  C  2 XY   -0.000003  -0.000454  -0.000004  -0.000186   0.000000
   39  C  2 XZ    0.000002  -0.020816  -0.000015  -0.032486   0.000003
   40  C  2 YZ    0.018361  -0.000009   0.020710   0.000003  -0.003540
   41  C  2  S   -0.013611  -0.000140  -0.272312  -0.000364   0.859399
   42  C  2  X    0.000014   0.030686   0.000020  -0.542406  -0.000002
   43  C  2  Y   -0.037999   0.000022   0.025786  -0.000065   0.196505
   44  C  2  Z   -0.017641   0.000097   0.008558   0.000076   0.165149
   45  C  2 XX   -0.004967   0.000002   0.007105   0.000022  -0.040243
   46  C  2 YY   -0.039205   0.000025  -0.023249   0.000019  -0.013393
   47  C  2 ZZ    0.044171  -0.000026   0.016144  -0.000041   0.053636
   48  C  2 XY    0.000028  -0.001283   0.000013   0.008388  -0.000006
   49  C  2 XZ    0.000014  -0.007001  -0.000003  -0.037688  -0.000001
   50  C  2 YZ   -0.017602   0.000006  -0.011786   0.000022   0.035146
   51  H  3  S    0.236582  -0.000080   0.193580   0.000071   0.006934
   52  H  3  S    0.289941  -0.000150   0.252408   0.000033  -0.360742
   53  H  3  X    0.000000   0.015719   0.000010  -0.021237   0.000004
   54  H  3  Y   -0.009005  -0.000001   0.007426  -0.000005  -0.010557
   55  H  3  Z    0.000792   0.000012  -0.016018  -0.000001  -0.001768
   56  H  3  S    0.038697  -0.000070   0.027109   0.000121  -0.922470
   57  H  3  X    0.000006   0.015171   0.000017  -0.054975  -0.000017
   58  H  3  Y   -0.039805   0.000023  -0.016965   0.000016   0.031648
   59  H  3  Z   -0.039997   0.000028  -0.030604   0.000014   0.032645
   60  H  4  S    0.324566  -0.000058   0.148070  -0.000118   0.007403
   61  H  4  S    0.395646  -0.000103   0.196906  -0.000147  -0.410197
   62  H  4  X    0.000003   0.014589   0.000010   0.021960   0.000002
   63  H  4  Y    0.009550  -0.000003  -0.000735  -0.000002   0.009641
   64  H  4  Z    0.002860  -0.000009   0.005200  -0.000004   0.001957
   65  H  4  S    0.036923  -0.000007   0.041702  -0.000205  -0.639395
   66  H  4  X    0.000026   0.015752   0.000009   0.045440  -0.000031
   67  H  4  Y    0.055380  -0.000022   0.035992   0.000010  -0.065121
   68  H  4  Z    0.053706  -0.000013   0.003082   0.000021  -0.016955
   69  H  5  S   -0.069685   0.000090  -0.210908  -0.000057   0.005142
   70  H  5  S   -0.188470   0.000123  -0.343249   0.000031  -0.419540
   71  H  5  X   -0.000004   0.014477   0.000007   0.022717   0.000003
   72  H  5  Y   -0.003038   0.000003  -0.000180   0.000003  -0.012256
   73  H  5  Z   -0.011121  -0.000007   0.000624  -0.000007   0.003126
   74  H  5  S   -0.045627   0.000048  -0.042475   0.000005  -1.127402
   75  H  5  X    0.000002   0.012941  -0.000007   0.052659  -0.000002
   76  H  5  Y    0.053390  -0.000011   0.043989  -0.000025   0.037428
   77  H  5  Z   -0.006754  -0.000003  -0.022210   0.000005  -0.025468

                     11         12         13         14         15
                    0.0152     0.0250     0.0626     0.0714     0.0792
                     A          A          A          A          A   
    1  C  1  S   -0.001118   0.002231  -0.000002   0.008174   0.003051
    2  C  1  S    0.066660  -0.017721  -0.000010  -0.008915   0.045626
    3  C  1  S    0.166817  -0.122361   0.000089  -0.392078   0.143529
    4  C  1  X   -0.000059   0.000007  -0.171822  -0.000027   0.000012
    5  C  1  Y   -0.067985  -0.116104  -0.000006   0.036556   0.010204
    6  C  1  Z   -0.036751   0.005881   0.000015   0.015561   0.052685
    7  C  1  X   -0.000100   0.000022  -0.195773   0.000088   0.000002
    8  C  1  Y   -0.179344  -0.368981   0.000097   0.099694   0.015042
    9  C  1  Z   -0.289803   0.118375   0.000420   0.031021  -0.068306
   10  C  1 XX    0.002765  -0.003205   0.000000  -0.007430  -0.006433
   11  C  1 YY    0.004835  -0.001838   0.000001   0.000599  -0.011001
   12  C  1 ZZ   -0.007601   0.005043  -0.000001   0.006830   0.017434
   13  C  1 XY   -0.000002  -0.000001   0.000867   0.000002  -0.000001
   14  C  1 XZ    0.000004  -0.000000  -0.006323  -0.000002  -0.000002
   15  C  1 YZ   -0.004745  -0.003973   0.000001  -0.010750   0.003310
   16  C  1  S    0.331710  -1.724310   0.001322 -11.202248   1.777748
   17  C  1  X   -0.000373   0.000058   0.625838  -0.000396  -0.000329
   18  C  1  Y   -0.217234  -1.974926  -0.000096   0.430527  -0.465238
   19  C  1  Z   -0.564085  -0.354553   0.000516  -4.938624  -1.463660
   20  C  1 XX   -0.009463   0.016123  -0.000042   0.084682   0.021742
   21  C  1 YY    0.023793  -0.052842  -0.000107  -0.154420   0.021461
   22  C  1 ZZ   -0.014330   0.036719   0.000149   0.069738  -0.043203
   23  C  1 XY    0.000018   0.000053  -0.024647  -0.000036   0.000025
   24  C  1 XZ    0.000048  -0.000008  -0.040232   0.000057   0.000042
   25  C  1 YZ   -0.044660   0.106520   0.000057   0.004984   0.115560
   26  C  2  S   -0.001242  -0.000967   0.000009  -0.005618   0.005501
   27  C  2  S   -0.070942   0.047443   0.000005   0.040894   0.029018
   28  C  2  S   -0.206062   0.239365  -0.000625   0.450804   0.050840
   29  C  2  X    0.000063  -0.000004  -0.127526  -0.000016   0.000010
   30  C  2  Y   -0.083497  -0.046155   0.000031  -0.139960   0.064465
   31  C  2  Z   -0.029062   0.024580  -0.000017   0.004034  -0.075783
   32  C  2  X    0.000087  -0.000046  -0.144986  -0.000207   0.000039
   33  C  2  Y   -0.153083   0.087800  -0.000126   0.122432  -0.154987
   34  C  2  Z   -0.269117   0.167191   0.000287   0.049606  -0.080075
   35  C  2 XX   -0.003390   0.001541   0.000001   0.001050  -0.010249
   36  C  2 YY   -0.001964   0.002177   0.000000  -0.001142  -0.013134
   37  C  2 ZZ    0.005354  -0.003718  -0.000001   0.000091   0.023384
   38  C  2 XY   -0.000003  -0.000003  -0.003966   0.000001   0.000001
   39  C  2 XZ    0.000004   0.000000   0.013607   0.000005   0.000002
   40  C  2 YZ    0.008219   0.007418  -0.000003   0.001840  -0.006698
   41  C  2  S   -0.391625   2.282243  -0.001811  11.512529  -0.589756
   42  C  2  X    0.000359  -0.000129   0.596665   0.000511   0.000050
   43  C  2  Y   -0.551664   1.050950  -0.000058   0.314784  -0.114774
   44  C  2  Z   -0.675334  -0.186298   0.000910  -4.235414   1.997462
   45  C  2 XX    0.006045  -0.040841   0.000035  -0.074866   0.064689
   46  C  2 YY   -0.063306   0.032991   0.000003   0.084974  -0.032531
   47  C  2 ZZ    0.057262   0.007850  -0.000038  -0.010109  -0.032157
   48  C  2 XY    0.000023  -0.000024   0.039728  -0.000035   0.000008
   49  C  2 XZ    0.000030  -0.000026   0.016031   0.000008  -0.000013
   50  C  2 YZ   -0.074018   0.092031   0.000057   0.061836   0.082779
   51  H  3  S    0.015414   0.014972  -0.000006  -0.023815  -0.013719
   52  H  3  S    0.674357  -0.571328   0.000163  -0.874132   0.259952
   53  H  3  X   -0.000001  -0.000000   0.005774  -0.000001   0.000003
   54  H  3  Y    0.010098   0.000032  -0.000004   0.009285  -0.008599
   55  H  3  Z    0.008246  -0.000780  -0.000003   0.005644   0.006721
   56  H  3  S    2.584880  -1.513130  -0.000406   3.567481  -0.251907
   57  H  3  X    0.000038  -0.000051  -0.039694  -0.000067   0.000037
   58  H  3  Y   -0.082385   0.135545  -0.000013   0.134094  -0.087733
   59  H  3  Z   -0.023755   0.005907  -0.000095   0.149968  -0.103613
   60  H  4  S   -0.007747   0.012179   0.000015  -0.026153  -0.023963
   61  H  4  S   -0.459176  -0.461354   0.000331   0.595241  -0.357709
   62  H  4  X    0.000001   0.000005   0.003547  -0.000001  -0.000001
   63  H  4  Y    0.007745   0.002540   0.000002   0.000111   0.003980
   64  H  4  Z    0.007148   0.002743   0.000001  -0.010702  -0.010610
   65  H  4  S   -2.102966  -3.098183   0.000037   0.405004  -1.145801
   66  H  4  X   -0.000002  -0.000029  -0.071590   0.000074   0.000002
   67  H  4  Y   -0.063407  -0.053080   0.000049   0.034891  -0.013564
   68  H  4  Z   -0.011356  -0.052090   0.000121   0.144379   0.029449
   69  H  5  S    0.003911  -0.003186  -0.000005   0.023929  -0.040923
   70  H  5  S   -0.153665   0.882378   0.000300   0.419860   0.080531
   71  H  5  X   -0.000004  -0.000005   0.004277   0.000000  -0.000001
   72  H  5  Y   -0.002564   0.004373  -0.000001  -0.001479  -0.006406
   73  H  5  Z    0.003125  -0.007266  -0.000003  -0.002597  -0.014080
   74  H  5  S   -0.469814   3.864296   0.000868  -4.385015   0.707600
   75  H  5  X   -0.000012   0.000072  -0.031430   0.000102   0.000040
   76  H  5  Y    0.064851  -0.098912  -0.000047  -0.008370  -0.090072
   77  H  5  Z    0.052322   0.064524   0.000081   0.098053   0.037146

                     16         17         18         19         20
                    0.1119     0.1135     0.1172     0.1282     0.1462
                     A          A          A          A          A   
    1  C  1  S    0.007436  -0.000009  -0.038645  -0.014264  -0.016821
    2  C  1  S   -0.051416   0.000043  -0.203267  -0.016761  -0.128517
    3  C  1  S   -1.102760   0.001585   0.257497   0.536800   0.646457
    4  C  1  X   -0.000169  -0.239866  -0.000044  -0.000018   0.000096
    5  C  1  Y    0.117146  -0.000069  -0.076964   0.236298   0.032585
    6  C  1  Z   -0.001485   0.000006   0.118938   0.000740   0.136425
    7  C  1  X   -0.000232  -0.186037  -0.000520  -0.000211   0.000251
    8  C  1  Y   -0.460820   0.000382   0.281318  -0.934291  -0.139646
    9  C  1  Z   -1.271604   0.002870  -1.661056  -0.290418   1.579082
   10  C  1 XX    0.001339  -0.000016   0.021219   0.015022  -0.040750
   11  C  1 YY   -0.000875  -0.000002   0.002673  -0.007580   0.050660
   12  C  1 ZZ   -0.000465   0.000018  -0.023892  -0.007442  -0.009910
   13  C  1 XY   -0.000005  -0.001342   0.000003  -0.000008  -0.000017
   14  C  1 XZ    0.000001   0.007277  -0.000001   0.000003  -0.000011
   15  C  1 YZ    0.024600  -0.000017  -0.005665   0.008357  -0.015434
   16  C  1  S   -6.220251   0.004139   5.054641   5.313232   0.361413
   17  C  1  X    0.000990   2.258234   0.000030   0.000363   0.000021
   18  C  1  Y   -0.390355  -0.000241   1.775660  -6.233271  -2.246822
   19  C  1  Z   -3.644743   0.004201  -1.977963   1.762215   0.501623
   20  C  1 XX    0.055476  -0.000110  -0.154174  -0.035664  -0.100913
   21  C  1 YY    0.186805  -0.000489   0.372223   0.175478  -0.679114
   22  C  1 ZZ   -0.242281   0.000599  -0.218048  -0.139814   0.780026
   23  C  1 XY    0.000126   0.036392  -0.000070   0.000228   0.000094
   24  C  1 XZ    0.000112   0.061804   0.000122  -0.000081   0.000311
   25  C  1 YZ   -0.065116   0.000090  -0.011064   0.353077   0.301724
   26  C  2  S    0.008428   0.000032  -0.037359  -0.025142   0.025109
   27  C  2  S    0.112082   0.000017  -0.112846  -0.098337   0.017405
   28  C  2  S    0.547732  -0.002207   1.430373   0.712513  -2.306721
   29  C  2  X    0.000160   0.245124   0.000090   0.000013  -0.000010
   30  C  2  Y    0.179329  -0.000119   0.001020  -0.001528  -0.087258
   31  C  2  Z    0.065396  -0.000022  -0.080440  -0.013641  -0.063216
   32  C  2  X    0.000366   0.227235   0.000038  -0.000000  -0.000251
   33  C  2  Y   -0.355806   0.000357   0.127361   0.370695  -0.512505
   34  C  2  Z   -1.429526   0.002601  -0.989009   0.199710   1.127000
   35  C  2 XX   -0.004959   0.000003   0.006052   0.013423  -0.011985
   36  C  2 YY    0.005848   0.000003   0.001892  -0.007369   0.017841
   37  C  2 ZZ   -0.000888  -0.000006  -0.007944  -0.006054  -0.005856
   38  C  2 XY   -0.000003   0.006123   0.000000  -0.000004  -0.000005
   39  C  2 XZ    0.000002   0.004821  -0.000003  -0.000001  -0.000001
   40  C  2 YZ   -0.016310   0.000006   0.003468  -0.017717   0.000995
   41  C  2  S    4.403013  -0.005967   2.740387  -1.047418  -2.080827
   42  C  2  X   -0.000868  -2.255591  -0.000566  -0.000699   0.000150
   43  C  2  Y   -2.787356   0.002709  -0.780196   3.603095   0.610243
   44  C  2  Z   -4.376759   0.004373  -0.226105   2.402241   1.093463
   45  C  2 XX    0.006506   0.000159  -0.132372  -0.069496  -0.023105
   46  C  2 YY   -0.305189   0.000420  -0.146992   0.047229   0.197433
   47  C  2 ZZ    0.298683  -0.000579   0.279364   0.022267  -0.174329
   48  C  2 XY    0.000057  -0.063723   0.000004  -0.000076  -0.000055
   49  C  2 XZ    0.000146   0.087179   0.000018  -0.000059   0.000076
   50  C  2 YZ   -0.256194   0.000241   0.090286   0.167001   0.176857
   51  H  3  S   -0.019365  -0.000022   0.003292  -0.084112   0.096984
   52  H  3  S    2.298619  -0.002218  -0.507170  -1.810621   0.618476
   53  H  3  X    0.000006   0.000910  -0.000003  -0.000003   0.000002
   54  H  3  Y   -0.019479   0.000010   0.011466   0.010471  -0.008936
   55  H  3  Z   -0.012198   0.000010  -0.001588   0.014969  -0.006025
   56  H  3  S    6.279566  -0.005795   0.270398  -4.027308  -0.668738
   57  H  3  X    0.000275   0.124869  -0.000074  -0.000210  -0.000042
   58  H  3  Y   -0.614867   0.000552   0.224410   0.290390   0.201785
   59  H  3  Z   -0.398506   0.000341   0.054441   0.163044  -0.144994
   60  H  4  S    0.023837   0.000055  -0.005483  -0.058506   0.105782
   61  H  4  S   -1.101572   0.002400  -1.815607  -3.102664   0.790330
   62  H  4  X   -0.000004  -0.000062  -0.000005  -0.000004   0.000003
   63  H  4  Y   -0.010662   0.000014  -0.009593  -0.022737  -0.025016
   64  H  4  Z   -0.008746   0.000011  -0.001281  -0.010643   0.005161
   65  H  4  S   -3.994832   0.003969  -0.939825  -5.156395  -1.844516
   66  H  4  X   -0.000093  -0.090851  -0.000274  -0.000290   0.000392
   67  H  4  Y   -0.326612   0.000523  -0.459209  -0.564401  -0.484613
   68  H  4  Z   -0.312672   0.000481  -0.235391  -0.547294   0.410521
   69  H  5  S   -0.021940   0.000072  -0.025885  -0.013739   0.224933
   70  H  5  S    0.034342   0.001609  -2.801747   1.266557   2.736664
   71  H  5  X   -0.000000  -0.002042  -0.000006   0.000002   0.000003
   72  H  5  Y   -0.009409   0.000001   0.025186  -0.017208   0.013447
   73  H  5  Z    0.001579   0.000004  -0.012606   0.014342  -0.001058
   74  H  5  S   -1.097202   0.002785  -4.204270   6.818397   2.542354
   75  H  5  X   -0.000114  -0.125204  -0.000287  -0.000028   0.000268
   76  H  5  Y   -0.029913  -0.000267   0.669932  -0.446850   0.178201
   77  H  5  Z    0.118412   0.000157  -0.414741   0.172878   0.422834

                     21         22         23         24         25
                    0.1707     0.1965     0.2193     0.2568     0.2891
                     A          A          A          A          A   
    1  C  1  S    0.049339   0.016917  -0.000004  -0.006392  -0.009897
    2  C  1  S    0.155522   0.006319   0.000050  -0.029850  -0.127493
    3  C  1  S   -2.259625  -0.453128  -0.000141   0.851246   0.445380
    4  C  1  X   -0.000082   0.000061   0.002394   0.000047   0.000070
    5  C  1  Y   -0.065300   0.118625   0.000002  -0.199343   0.009948
    6  C  1  Z   -0.058261  -0.021992   0.000045   0.072982   0.009875
    7  C  1  X    0.000096   0.000219  -0.080912   0.000059   0.000300
    8  C  1  Y   -0.045533   0.601676   0.000346  -0.208870   0.083379
    9  C  1  Z   -0.975796   1.312112  -0.001491   0.743691   2.563140
   10  C  1 XX    0.013200  -0.025950   0.000039  -0.014841  -0.022567
   11  C  1 YY   -0.003700   0.025787  -0.000026   0.018427  -0.074045
   12  C  1 ZZ   -0.009500   0.000163  -0.000013  -0.003586   0.096612
   13  C  1 XY   -0.000028   0.000075   0.048700  -0.000007   0.000013
   14  C  1 XZ    0.000008  -0.000008  -0.002302  -0.000001   0.000029
   15  C  1 YZ   -0.037664   0.038460  -0.000119  -0.032299  -0.013411
   16  C  1  S  -19.562489 -20.993519   0.019426 -10.143036   1.686450
   17  C  1  X   -0.000463  -0.000131   0.016816   0.000215   0.001082
   18  C  1  Y   -0.050964   2.501680  -0.003041  -1.820621  -0.875049
   19  C  1  Z   -6.472264  -5.843024   0.004908  -2.264585   3.809478
   20  C  1 XX    0.178385   0.115643  -0.000162   0.085960  -0.289707
   21  C  1 YY    0.104367  -0.576219   0.000620  -0.207410   0.102560
   22  C  1 ZZ   -0.282752   0.460576  -0.000458   0.121450   0.187147
   23  C  1 XY    0.000024  -0.000286  -0.200084   0.000077  -0.000240
   24  C  1 XZ   -0.000042   0.000026  -0.025840   0.000037  -0.000510
   25  C  1 YZ    0.472049  -0.211666   0.001084   0.914077   0.212084
   26  C  2  S   -0.046454  -0.016875   0.000005  -0.003837   0.033367
   27  C  2  S   -0.201115  -0.041553  -0.000045  -0.000844   0.155731
   28  C  2  S    1.630188  -0.604763   0.001106  -0.408800  -0.863676
   29  C  2  X    0.000116  -0.000101  -0.040166  -0.000075   0.000017
   30  C  2  Y   -0.036771   0.071514  -0.000134   0.286184  -0.033501
   31  C  2  Z   -0.112737  -0.001014  -0.000063   0.026488  -0.238318
   32  C  2  X    0.000086  -0.000647  -0.215978  -0.000430   0.000401
   33  C  2  Y   -0.179858   0.819748  -0.001590   0.322072   0.423989
   34  C  2  Z   -1.183826   1.242437  -0.001662   0.807117   1.652303
   35  C  2 XX   -0.016593   0.013338  -0.000041   0.014011   0.028483
   36  C  2 YY    0.011611   0.004106   0.000003  -0.021827   0.018136
   37  C  2 ZZ    0.004983  -0.017444   0.000038   0.007816  -0.046619
   38  C  2 XY   -0.000018   0.000034   0.021946   0.000017  -0.000015
   39  C  2 XZ    0.000003   0.000021   0.009338   0.000001  -0.000018
   40  C  2 YZ    0.017335  -0.053455   0.000097   0.010722  -0.007658
   41  C  2  S   19.701586  21.134655  -0.019570  10.852145  -3.406812
   42  C  2  X    0.000537  -0.000098  -0.165420  -0.000409  -0.000518
   43  C  2  Y   -1.750363  -0.959443   0.000273   1.634495   1.201537
   44  C  2  Z   -6.450390  -5.204959   0.003861  -2.325070   1.299766
   45  C  2 XX   -0.195517  -0.158417   0.000160   0.002364   0.167795
   46  C  2 YY   -0.169944   0.206128  -0.000156   0.204997   0.170062
   47  C  2 ZZ    0.365462  -0.047711  -0.000004  -0.207362  -0.337857
   48  C  2 XY   -0.000151   0.000333   0.266287  -0.000117   0.000191
   49  C  2 XZ   -0.000010  -0.000240  -0.120478  -0.000059  -0.000225
   50  C  2 YZ    0.366076   0.282908   0.000029   0.636752   0.320422
   51  H  3  S    0.173269  -0.189333   0.000366  -0.084717  -0.024483
   52  H  3  S   -0.348261  -3.146532   0.003430  -2.885816  -2.151962
   53  H  3  X    0.000001  -0.000010  -0.004394   0.000004  -0.000006
   54  H  3  Y    0.013147  -0.003191   0.000017  -0.003196   0.000494
   55  H  3  Z    0.004285  -0.007949   0.000014  -0.005096  -0.011551
   56  H  3  S    3.311880   1.718863  -0.000664   0.166244  -2.510948
   57  H  3  X   -0.000285   0.000325   0.512550   0.000185  -0.000921
   58  H  3  Y    0.631295   0.610702  -0.000247  -0.287562   0.688618
   59  H  3  Z    0.153404  -0.189511   0.000952   0.228525   0.289765
   60  H  4  S   -0.147488   0.219746  -0.000317   0.013179   0.015350
   61  H  4  S   -0.448991   3.666531  -0.003852  -0.908991   1.297707
   62  H  4  X   -0.000000   0.000001  -0.000955   0.000009  -0.000003
   63  H  4  Y    0.019981   0.000676   0.000015  -0.000125   0.015487
   64  H  4  Z    0.023762  -0.002597   0.000030   0.025059  -0.007771
   65  H  4  S   -2.010062   0.977451  -0.002793  -0.518084   0.926854
   66  H  4  X    0.000216  -0.000478  -0.750973   0.000130  -0.000725
   67  H  4  Y    0.136200   0.199174  -0.000361  -0.366130   0.606402
   68  H  4  Z    0.260529   0.124172   0.000780   0.446231  -0.856882
   69  H  5  S    0.034575  -0.051788   0.000072   0.151102   0.040395
   70  H  5  S    1.661788   1.103287  -0.000989   2.754680   1.989954
   71  H  5  X   -0.000004   0.000011   0.003520  -0.000004   0.000004
   72  H  5  Y   -0.015190   0.002855   0.000002   0.017270  -0.012429
   73  H  5  Z   -0.007347   0.016210  -0.000042  -0.018723  -0.016302
   74  H  5  S   -1.584822  -3.122641   0.003759   0.041286   2.507717
   75  H  5  X   -0.000124   0.001408   0.853835   0.000186   0.000082
   76  H  5  Y   -0.470722  -0.045157  -0.000324  -0.040605  -0.836072
   77  H  5  Z   -0.024104   0.606153  -0.001246  -0.556281  -0.898580

                     26         27         28         29         30
                    0.3091     0.3162     0.3576     0.3767     0.4047
                     A          A          A          A          A   
    1  C  1  S   -0.000093  -0.030069  -0.000008  -0.019430   0.041027
    2  C  1  S   -0.000440  -0.131889   0.000009  -0.059242  -0.017991
    3  C  1  S    0.004253   1.504803   0.000363   1.842953  -2.271235
    4  C  1  X   -0.060227   0.000195  -0.250633   0.000022  -0.000035
    5  C  1  Y   -0.000517  -0.141610   0.000064   0.281248   0.053136
    6  C  1  Z   -0.000823  -0.242996  -0.000039  -0.071124   0.002338
    7  C  1  X   -0.371563   0.001358  -0.986519   0.000431  -0.000536
    8  C  1  Y    0.001072   0.278745   0.000018   3.152226   0.279454
    9  C  1  Z    0.009473   2.533756  -0.000506   1.888715  -1.870146
   10  C  1 XX   -0.000101  -0.027348  -0.000023  -0.013565   0.018838
   11  C  1 YY   -0.000050  -0.003327   0.000019   0.006444   0.007656
   12  C  1 ZZ    0.000151   0.030675   0.000003   0.007120  -0.026494
   13  C  1 XY   -0.034990   0.000124   0.011393  -0.000047  -0.000013
   14  C  1 XZ   -0.018865   0.000061  -0.029219   0.000004  -0.000011
   15  C  1 YZ   -0.000059  -0.024972  -0.000017  -0.051089  -0.010608
   16  C  1  S    0.024478   5.841357   0.003972   0.213705  -6.524745
   17  C  1  X   -0.103866   0.000790  -1.115653   0.000303  -0.000450
   18  C  1  Y   -0.013650  -3.817707   0.000719   4.801699   1.610724
   19  C  1  Z    0.008755   1.840578   0.000671   0.053616  -1.800969
   20  C  1 XX   -0.000543  -0.102298   0.000122  -0.081140   0.520517
   21  C  1 YY   -0.002044  -0.556881  -0.000568  -0.350251   0.626732
   22  C  1 ZZ    0.002587   0.659178   0.000446   0.431391  -1.147249
   23  C  1 XY    0.539945  -0.001872  -0.236819  -0.000183   0.000268
   24  C  1 XZ   -0.003694  -0.000090   0.072023   0.000121  -0.000037
   25  C  1 YZ    0.003178   1.135278   0.000426   0.416216   0.269306
   26  C  2  S    0.000121   0.029733  -0.000017   0.012074   0.032802
   27  C  2  S    0.000482   0.116958   0.000012   0.030784  -0.012265
   28  C  2  S   -0.007192  -1.763484   0.000089  -0.711636  -0.199612
   29  C  2  X   -0.114724   0.000413   0.042179  -0.000008  -0.000013
   30  C  2  Y    0.000073   0.031033   0.000024   0.033872  -0.204038
   31  C  2  Z   -0.000076   0.016883  -0.000070  -0.013556   0.029455
   32  C  2  X   -0.644075   0.002115   0.470230  -0.000567   0.000587
   33  C  2  Y   -0.001765  -0.607208  -0.000129   0.070446  -2.264981
   34  C  2  Z    0.011007   3.181427  -0.000224   2.170569  -3.044081
   35  C  2 XX    0.000098   0.030505   0.000005   0.008124   0.005502
   36  C  2 YY    0.000203   0.053036  -0.000014   0.011073  -0.020725
   37  C  2 ZZ   -0.000300  -0.083541   0.000009  -0.019197   0.015223
   38  C  2 XY    0.035409  -0.000115  -0.010179   0.000001   0.000015
   39  C  2 XZ    0.025879  -0.000069   0.014718  -0.000001   0.000005
   40  C  2 YZ   -0.000077  -0.021116  -0.000003   0.004859  -0.007779
   41  C  2  S   -0.020661  -4.890322  -0.001562   0.404835   0.893152
   42  C  2  X   -0.472132   0.000972   0.538240  -0.000320   0.000649
   43  C  2  Y    0.009868   2.775977   0.000134  -0.590059  -2.781437
   44  C  2  Z    0.015255   4.223638   0.000418   0.690786  -2.011555
   45  C  2 XX    0.001216   0.369949  -0.000195   0.156198   0.895895
   46  C  2 YY    0.001004   0.354434   0.000082   0.758726  -0.958367
   47  C  2 ZZ   -0.002220  -0.724383   0.000113  -0.914925   0.062472
   48  C  2 XY   -0.379341   0.001358  -0.186553  -0.000293   0.000300
   49  C  2 XZ   -0.184712   0.000402   0.328417   0.000007  -0.000009
   50  C  2 YZ    0.003674   1.218470   0.000298   0.780335   0.119485
   51  H  3  S   -0.000160  -0.025193  -0.000013   0.049744  -0.035066
   52  H  3  S   -0.010207  -3.073212  -0.000529  -3.332733   6.866365
   53  H  3  X    0.004853  -0.000013   0.000036  -0.000001  -0.000003
   54  H  3  Y   -0.000010  -0.001463  -0.000002  -0.000474   0.002683
   55  H  3  Z   -0.000123  -0.036167  -0.000006  -0.010679   0.009319
   56  H  3  S   -0.012161  -3.201787  -0.000485  -0.635581   3.065158
   57  H  3  X    1.553673  -0.005513  -0.406199  -0.000135   0.000968
   58  H  3  Y    0.004134   1.100234  -0.000182   0.512499  -1.418197
   59  H  3  Z   -0.003738  -1.073453   0.000261   0.729678  -0.921789
   60  H  4  S   -0.000283  -0.056213  -0.000017   0.025672   0.039097
   61  H  4  S   -0.000439  -0.529962  -0.001622   4.333797   0.113932
   62  H  4  X    0.005325  -0.000017  -0.012451   0.000003  -0.000008
   63  H  4  Y    0.000005  -0.000044  -0.000001   0.005072   0.004354
   64  H  4  Z    0.000003   0.004310   0.000008   0.003458   0.001368
   65  H  4  S   -0.004676  -1.328715   0.000391   4.182146   0.194446
   66  H  4  X    1.306133  -0.004699   0.709940   0.001039   0.000786
   67  H  4  Y    0.001571   0.189721  -0.001031  -0.107255  -0.308312
   68  H  4  Z    0.002005   0.751916   0.000206   1.568686  -0.471834
   69  H  5  S    0.000096   0.042350  -0.000029   0.004872   0.025482
   70  H  5  S    0.011379   3.594001  -0.000544  -2.481637   0.559109
   71  H  5  X   -0.006742   0.000021  -0.010640  -0.000002  -0.000004
   72  H  5  Y    0.000014   0.008091   0.000006   0.014793   0.000502
   73  H  5  Z   -0.000109  -0.034897   0.000001  -0.019288   0.002342
   74  H  5  S    0.014872   4.001933  -0.000930  -3.789879  -0.951841
   75  H  5  X   -0.457822   0.002380   1.639599  -0.001013   0.000114
   76  H  5  Y   -0.001962  -0.640866   0.000088  -0.459260  -0.240096
   77  H  5  Z    0.001037   0.332325  -0.000198  -0.923856  -0.190665

                     31         32         33         34         35
                    0.4380     0.4451     0.4486     0.4779     0.4850
                     A          A          A          A          A   
    1  C  1  S    0.063684   0.004881  -0.000154   0.023458  -0.000453
    2  C  1  S    0.024126  -0.050103   0.000017  -0.023489  -0.000015
    3  C  1  S   -3.771685   1.644604   0.008167  -2.192560   0.035039
    4  C  1  X    0.000324   0.000122   0.248660   0.000194   0.037962
    5  C  1  Y    0.019139  -0.058150   0.000070  -0.143722  -0.000370
    6  C  1  Z    0.065480   0.000729  -0.000061   0.011588  -0.001312
    7  C  1  X    0.003835   0.001718   1.865499   0.001395   0.296630
    8  C  1  Y   -0.594453   1.525342   0.002031  -3.510899   0.005065
    9  C  1  Z    6.339439   3.297393  -0.006753  -0.401395   0.014997
   10  C  1 XX    0.015976  -0.010198  -0.000008  -0.013036  -0.000077
   11  C  1 YY   -0.027119  -0.002716   0.000012   0.013152  -0.000080
   12  C  1 ZZ    0.011143   0.012914  -0.000004  -0.000116   0.000157
   13  C  1 XY    0.000013  -0.000010   0.002043  -0.000021   0.004977
   14  C  1 XZ   -0.000028  -0.000026  -0.013618  -0.000059   0.032819
   15  C  1 YZ    0.022713   0.008917  -0.000069  -0.015998  -0.000074
   16  C  1  S   -7.276067  -3.447542   0.002703   3.373150   0.019278
   17  C  1  X    0.002036   0.001305   1.144641   0.001118  -0.197669
   18  C  1  Y   -0.394740   1.841687   0.000234  -0.738911   0.005029
   19  C  1  Z    1.014537   0.097433  -0.002895   0.897004   0.000265
   20  C  1 XX    0.597764   0.212796  -0.000927  -0.443586  -0.002695
   21  C  1 YY   -2.100940  -0.515368   0.001276   0.482476  -0.012744
   22  C  1 ZZ    1.503175   0.302571  -0.000349  -0.038890   0.015439
   23  C  1 XY   -0.000128  -0.000943  -0.251979   0.000196   0.338708
   24  C  1 XZ   -0.000176   0.000847  -0.141731   0.002376  -1.497951
   25  C  1 YZ    0.273393  -2.742760   0.002212  -0.294645  -0.005223
   26  C  2  S    0.066734   0.019860  -0.000095   0.054611   0.000478
   27  C  2  S    0.000900  -0.025514   0.000037   0.008008   0.000380
   28  C  2  S   -7.035206  -1.530111   0.007467  -4.371097  -0.056736
   29  C  2  X   -0.000176  -0.000344  -0.251605  -0.000549   0.258399
   30  C  2  Y    0.137662   0.054479  -0.000211  -0.133328  -0.000137
   31  C  2  Z    0.008946  -0.070277   0.000163  -0.163346  -0.001028
   32  C  2  X   -0.000875  -0.002176  -0.704661  -0.002362   1.619439
   33  C  2  Y   -0.282368   3.525978  -0.002036  -1.163211  -0.004057
   34  C  2  Z    3.432091   2.790918  -0.001572  -2.042897   0.014180
   35  C  2 XX    0.034268  -0.004966  -0.000022  -0.012345   0.000175
   36  C  2 YY   -0.010029   0.028459  -0.000006   0.018648   0.000025
   37  C  2 ZZ   -0.024240  -0.023493   0.000028  -0.006303  -0.000200
   38  C  2 XY    0.000016  -0.000015   0.004720   0.000001  -0.003440
   39  C  2 XZ   -0.000010  -0.000016  -0.015154  -0.000029  -0.000872
   40  C  2 YZ   -0.015575   0.057009  -0.000034   0.016880   0.000052
   41  C  2  S   -0.546888   1.763971   0.007583  -4.546366  -0.022484
   42  C  2  X   -0.001368  -0.001601  -1.177526  -0.001573   0.566257
   43  C  2  Y    0.455704  -0.011667  -0.000745  -0.146396  -0.003653
   44  C  2  Z   -0.316489  -0.099535  -0.000727   0.213896   0.001530
   45  C  2 XX    0.074968   0.243540   0.000158  -0.145944   0.000997
   46  C  2 YY    0.687745   1.325872  -0.002319   0.196600   0.002929
   47  C  2 ZZ   -0.762714  -1.569412   0.002160  -0.050656  -0.003925
   48  C  2 XY   -0.000774  -0.001483  -0.659723  -0.001829   0.975617
   49  C  2 XZ    0.001692   0.000660   1.056173   0.000772   0.297900
   50  C  2 YZ   -0.536358  -0.731195   0.002517  -0.301825  -0.000149
   51  H  3  S   -0.075612   0.192360  -0.000059   0.145307   0.000566
   52  H  3  S    0.908188  -3.971507  -0.003457   5.916671   0.022466
   53  H  3  X   -0.000011  -0.000035  -0.017261  -0.000048   0.023117
   54  H  3  Y   -0.017844   0.014106  -0.000017   0.030498  -0.000008
   55  H  3  Z   -0.017992   0.028313  -0.000006   0.005866   0.000003
   56  H  3  S    0.045725  -0.287590  -0.000129   0.730961   0.006101
   57  H  3  X    0.000582   0.001490   0.741084   0.003112  -1.426061
   58  H  3  Y   -0.464522   0.084451   0.003162  -3.098645  -0.010837
   59  H  3  Z    0.135416   1.579107  -0.001657  -0.977134  -0.005865
   60  H  4  S   -0.054225  -0.078231  -0.000060   0.005157  -0.001321
   61  H  4  S    7.163565   9.157774  -0.010850  -5.149677   0.013420
   62  H  4  X    0.000010   0.000027   0.017029   0.000028  -0.005423
   63  H  4  Y    0.004383  -0.020364   0.000008   0.003067   0.000077
   64  H  4  Z   -0.008989  -0.011921   0.000032   0.001600   0.000035
   65  H  4  S    1.581944   1.889575  -0.002531  -0.753656  -0.000058
   66  H  4  X   -0.000503  -0.000081  -1.323687  -0.000879  -0.155659
   67  H  4  Y    1.397100   3.023386  -0.004131  -1.377421  -0.003549
   68  H  4  Z    1.851553  -0.046169  -0.001142  -1.256250   0.004359
   69  H  5  S   -0.173987   0.109007   0.000049   0.126184  -0.000646
   70  H  5  S    8.770448  -3.961415  -0.007461   4.691786  -0.010900
   71  H  5  X    0.000009  -0.000022   0.008015  -0.000011   0.013555
   72  H  5  Y   -0.007238  -0.005001   0.000013   0.024487  -0.000056
   73  H  5  Z    0.006052  -0.004481  -0.000024   0.001631  -0.000050
   74  H  5  S    1.389758  -0.802323  -0.001904   0.897401  -0.006277
   75  H  5  X    0.000432   0.000455  -0.452799   0.001440  -1.184803
   76  H  5  Y   -1.869975   1.847850   0.002018  -2.591847   0.009632
   77  H  5  Z    1.266845   0.742346  -0.002328   1.444607   0.005561

                     36         37         38         39         40
                    0.4902     0.4936     0.5058     0.5599     0.5638
                     A          A          A          A          A   
    1  C  1  S    0.024368   0.103242  -0.030709   0.075669   0.000188
    2  C  1  S   -0.109447   0.010873  -0.034319   0.032458   0.000269
    3  C  1  S   -2.746512  -8.285477   5.015359  -8.277118  -0.022323
    4  C  1  X    0.000227   0.000248  -0.000092  -0.000096   0.074112
    5  C  1  Y    0.168656  -0.021580  -0.096672  -0.030374   0.000181
    6  C  1  Z   -0.185605   0.350073  -0.113483  -0.128367  -0.000255
    7  C  1  X    0.002049   0.001879   0.000430  -0.004900   1.488296
    8  C  1  Y   -0.467465  -1.104955  -7.180451  -0.006784   0.006647
    9  C  1  Z   -3.287619  -2.189283   1.507838  -1.238992   0.008452
   10  C  1 XX   -0.010330   0.011573  -0.007643   0.031253   0.000140
   11  C  1 YY    0.018530   0.026835  -0.009781  -0.009137  -0.000075
   12  C  1 ZZ   -0.008200  -0.038408   0.017424  -0.022116  -0.000065
   13  C  1 XY    0.000033   0.000026   0.000003  -0.000025   0.003393
   14  C  1 XZ    0.000026   0.000155  -0.000011   0.000175  -0.057062
   15  C  1 YZ    0.053537  -0.007868   0.016501  -0.027896  -0.000132
   16  C  1  S    5.229952  -6.492141  -4.350767 -15.248967  -0.045817
   17  C  1  X    0.000166  -0.000535   0.000108  -0.001189   0.236421
   18  C  1  Y   -0.236694  -0.654836  -1.892664   0.723162   0.000986
   19  C  1  Z    0.704816  -0.395879  -0.971953  -4.871064  -0.014509
   20  C  1 XX   -0.356308   0.413507   0.509732  -0.112405  -0.001503
   21  C  1 YY    1.029433   2.475584  -0.760775  -1.910631  -0.009127
   22  C  1 ZZ   -0.673125  -2.889091   0.251043   2.023036   0.010631
   23  C  1 XY    0.000906   0.001903   0.002541  -0.006350   1.631088
   24  C  1 XZ   -0.001580  -0.007914   0.000149  -0.005345   2.201081
   25  C  1 YZ    0.810623   0.338317   0.244011   0.550467   0.003916
   26  C  2  S   -0.011215  -0.087913  -0.025862  -0.050732  -0.000067
   27  C  2  S    0.083392  -0.092949   0.000514   0.131050   0.000472
   28  C  2  S    3.500661  10.107845   2.427205   2.711843  -0.002855
   29  C  2  X    0.000019   0.001039  -0.000125   0.001134  -0.318577
   30  C  2  Y    0.062994  -0.022389  -0.018224  -0.029983  -0.000347
   31  C  2  Z   -0.165888   0.199036  -0.015837  -0.044652   0.000240
   32  C  2  X    0.001202   0.007615  -0.000782   0.002756  -1.509145
   33  C  2  Y   -0.542643   1.225215   3.337370   0.411970   0.000760
   34  C  2  Z   -3.642516  -2.478401   2.820527  -1.097371   0.008432
   35  C  2 XX    0.003650  -0.048332   0.005824   0.006698   0.000033
   36  C  2 YY   -0.011799   0.006050   0.005943  -0.028526  -0.000103
   37  C  2 ZZ    0.008149   0.042282  -0.011767   0.021828   0.000070
   38  C  2 XY    0.000029  -0.000017   0.000010  -0.000098   0.028023
   39  C  2 XZ   -0.000015  -0.000015  -0.000006   0.000103  -0.034249
   40  C  2 YZ   -0.032182   0.011714   0.006298  -0.020790  -0.000123
   41  C  2  S   -5.027405   6.596931   5.469992  16.382582   0.051467
   42  C  2  X    0.000147   0.002029  -0.000348   0.001673  -0.390782
   43  C  2  Y   -0.163117   0.526049   0.949457  -1.030426  -0.001763
   44  C  2  Z    0.547430  -0.889991  -0.640932  -3.830543  -0.010037
   45  C  2 XX    0.252948  -0.380775   0.031788  -0.366017  -0.000831
   46  C  2 YY    0.230345  -0.564900   1.564415  -0.870989  -0.002316
   47  C  2 ZZ   -0.483292   0.945676  -1.596203   1.237006   0.003148
   48  C  2 XY    0.000326   0.004151  -0.000357  -0.000434   0.068934
   49  C  2 XZ    0.001511   0.001282   0.000664  -0.006987   1.966618
   50  C  2 YZ   -0.955931   0.331420  -0.373091   1.348332   0.008342
   51  H  3  S   -0.186034  -0.009069   0.037210  -0.145560  -0.000470
[...]
 II,JST,KST,LST =  1  1  1  1 NREC =         1 INTLOC =    1
 II,JST,KST,LST =  2  1  1  1 NREC =         1 INTLOC =    1
 II,JST,KST,LST =  3  1  1  1 NREC =         1 INTLOC =    1
 II,JST,KST,LST =  4  1  1  1 NREC =         1 INTLOC =    1
 II,JST,KST,LST =  5  1  1  1 NREC =         1 INTLOC =    1
 II,JST,KST,LST =  6  1  1  1 NREC =         1 INTLOC =    1
 II,JST,KST,LST =  7  1  1  1 NREC =         1 INTLOC =    4
 II,JST,KST,LST =  8  1  1  1 NREC =         1 INTLOC =   49
 II,JST,KST,LST =  9  1  1  1 NREC =         1 INTLOC =  436
 II,JST,KST,LST = 10  1  1  1 NREC =         1 INTLOC =  436
 II,JST,KST,LST = 11  1  1  1 NREC =         1 INTLOC =  436
 II,JST,KST,LST = 12  1  1  1 NREC =         1 INTLOC =  732
 II,JST,KST,LST = 13  1  1  1 NREC =         1 INTLOC =  732
 II,JST,KST,LST = 14  1  1  1 NREC =         1 INTLOC =  732
 II,JST,KST,LST = 15  1  1  1 NREC =         1 INTLOC =  732
 II,JST,KST,LST = 16  1  1  1 NREC =         1 INTLOC =  732
 II,JST,KST,LST = 17  1  1  1 NREC =         1 INTLOC = 2553
 II,JST,KST,LST = 18  1  1  1 NREC =         1 INTLOC = 3396
 II,JST,KST,LST = 19  1  1  1 NREC =         1 INTLOC = 5484
 II,JST,KST,LST = 20  1  1  1 NREC =         1 INTLOC =11018
 II,JST,KST,LST = 21  1  1  1 NREC =         2 INTLOC =  867
 II,JST,KST,LST = 22  1  1  1 NREC =         2 INTLOC =  867
 II,JST,KST,LST = 23  1  1  1 NREC =         2 INTLOC = 4895
 II,JST,KST,LST = 24  1  1  1 NREC =         4 INTLOC =12495
 II,JST,KST,LST = 25  1  1  1 NREC =         4 INTLOC =12495
 II,JST,KST,LST = 26  1  1  1 NREC =         5 INTLOC =10049
 II,JST,KST,LST = 27  1  1  1 NREC =         6 INTLOC = 9575
 II,JST,KST,LST = 28  1  1  1 NREC =         7 INTLOC = 2764
 II,JST,KST,LST = 29  1  1  1 NREC =        11 INTLOC = 8370
 II,JST,KST,LST = 30  1  1  1 NREC =        11 INTLOC = 8370
 II,JST,KST,LST = 31  1  1  1 NREC =        12 INTLOC = 6390
 II,JST,KST,LST = 32  1  1  1 NREC =        14 INTLOC =12458
 II,JST,KST,LST = 33  1  1  1 NREC =        15 INTLOC = 3008
 II,JST,KST,LST = 34  1  1  1 NREC =        17 INTLOC = 5338
 II,JST,KST,LST = 35  1  1  1 NREC =        18 INTLOC = 1846
 II,JST,KST,LST = 36  1  1  1 NREC =        19 INTLOC = 8806
 II,JST,KST,LST = 37  1  1  1 NREC =        20 INTLOC = 1097
 II,JST,KST,LST = 38  1  1  1 NREC =        24 INTLOC =14022
 II,JST,KST,LST = 39  1  1  1 NREC =        29 INTLOC = 7534
 II,JST,KST,LST = 40  1  1  1 NREC =        40 INTLOC = 5590
 II,JST,KST,LST = 41  1  1  1 NREC =        40 INTLOC = 5590
 II,JST,KST,LST = 42  1  1  1 NREC =        40 INTLOC = 5590
 II,JST,KST,LST = 43  1  1  1 NREC =        48 INTLOC = 5829
 II,JST,KST,LST = 44  1  1  1 NREC =        49 INTLOC = 9926
 II,JST,KST,LST = 45  1  1  1 NREC =        51 INTLOC = 4266
 II,JST,KST,LST = 46  1  1  1 NREC =        54 INTLOC = 9234
 II,JST,KST,LST = 47  1  1  1 NREC =        63 INTLOC = 8611
 II,JST,KST,LST = 48  1  1  1 NREC =        71 INTLOC = 7626
 II,JST,KST,LST = 49  1  1  1 NREC =       107 INTLOC = 9453
 II,JST,KST,LST = 50  1  1  1 NREC =       107 INTLOC = 9453
 II,JST,KST,LST = 51  1  1  1 NREC =       113 INTLOC = 9616
 II,JST,KST,LST = 52  1  1  1 NREC =       132 INTLOC = 9230
 II,JST,KST,LST = 53  1  1  1 NREC =       141 INTLOC = 3687
 II,JST,KST,LST = 54  1  1  1 NREC =       145 INTLOC = 6680
 II,JST,KST,LST = 55  1  1  1 NREC =       164 INTLOC =10627
 II,JST,KST,LST = 56  1  1  1 NREC =       171 INTLOC =11249
 II,JST,KST,LST = 57  1  1  1 NREC =       183 INTLOC = 7606
 II,JST,KST,LST = 58  1  1  1 NREC =       190 INTLOC =12319
 II,JST,KST,LST = 59  1  1  1 NREC =       191 INTLOC =13167
 II,JST,KST,LST = 60  1  1  1 NREC =       204 INTLOC =10580
 II,JST,KST,LST = 61  1  1  1 NREC =       217 INTLOC =14370
 II,JST,KST,LST = 62  1  1  1 NREC =       227 INTLOC = 1998
 II,JST,KST,LST = 63  1  1  1 NREC =       235 INTLOC = 7780
 II,JST,KST,LST = 64  1  1  1 NREC =       241 INTLOC =14452
 II,JST,KST,LST = 65  1  1  1 NREC =       253 INTLOC = 3861
 II,JST,KST,LST = 66  1  1  1 NREC =       261 INTLOC =10126
 SCHWARZ INEQUALITY TEST SKIPPED       27267 INTEGRAL BLOCKS.
 TOTAL NUMBER OF NONZERO TWO-ELECTRON INTEGRALS =            67175850
       4487 INTEGRAL RECORDS WERE STORED ON DISK FILE  8.
  ...... END OF TWO-ELECTRON INTEGRALS .....
 CPU     0: STEP CPU TIME=     0.27 TOTAL CPU TIME=         23.7 (      0.4 MIN)
 TOTAL WALL CLOCK TIME=         24.1 SECONDS, CPU UTILIZATION IS    98.40%

          ---------------------------------------------
          MONOMER ELECTROSTATIC INTERACTION (OWN BASIS)
          ---------------------------------------------

          -------------
          GUESS OPTIONS
          -------------
          GUESS =MOSAVED           NORB  =       0          NORDER=       0
          MIX   =       F          PRTMO =       F          PUNMO =       F
          TOLZ  = 1.0E-08          TOLE  = 1.0E-05
          SYMDEN=       F          PURIFY=       F

 INITIAL GUESS ORBITALS GENERATED BY MOSAVED  ROUTINE.

 STATISTICS FOR GENERATION OF SYMMETRY ORBITAL -Q- MATRIX
 NUMBER OF CARTESIAN ATOMIC ORBITALS=        154
 NUMBER OF SPHERICAL CONTAMINANTS DROPPED=     8
 NUMBER OF LINEARLY DEPENDENT MOS DROPPED=     0
 TOTAL NUMBER OF MOS IN VARIATION SPACE=     146
 ...... END OF INITIAL ORBITAL SELECTION ......
 CPU     0: STEP CPU TIME=     0.01 TOTAL CPU TIME=         23.7 (      0.4 MIN)
 TOTAL WALL CLOCK TIME=         24.1 SECONDS, CPU UTILIZATION IS    98.40%

          ---------------------------
                  UHF SCF CALCULATION
          ---------------------------

 FINAL UHF ENERGY IS     -155.3706042451 AFTER   1 ITERATIONS
 ...... END OF UHF CALCULATION ......
 CPU     0: STEP CPU TIME=     0.08 TOTAL CPU TIME=         23.8 (      0.4 MIN)
 TOTAL WALL CLOCK TIME=         24.2 SECONDS, CPU UTILIZATION IS    98.36%

          -------------
          GUESS OPTIONS
          -------------
          GUESS =MOSAVED           NORB  =       0          NORDER=       0
          MIX   =       F          PRTMO =       F          PUNMO =       F
          TOLZ  = 1.0E-08          TOLE  = 1.0E-05
          SYMDEN=       F          PURIFY=       F

 INITIAL GUESS ORBITALS GENERATED BY MOSAVED  ROUTINE.

 STATISTICS FOR GENERATION OF SYMMETRY ORBITAL -Q- MATRIX
 NUMBER OF CARTESIAN ATOMIC ORBITALS=        154
 NUMBER OF SPHERICAL CONTAMINANTS DROPPED=     8
 NUMBER OF LINEARLY DEPENDENT MOS DROPPED=     0
 TOTAL NUMBER OF MOS IN VARIATION SPACE=     146
 ...... END OF INITIAL ORBITAL SELECTION ......
 CPU     0: STEP CPU TIME=     0.01 TOTAL CPU TIME=         23.8 (      0.4 MIN)
 TOTAL WALL CLOCK TIME=         24.2 SECONDS, CPU UTILIZATION IS    98.36%

          ---------------------------
                  UHF SCF CALCULATION
          ---------------------------

 DIRECT SCF CALCULATION, SCHWRZ=T   FDIFF=T
 SCHWARZ INEQUALITY OVERHEAD:     11935 INTEGRALS, T=        0.00

 FINAL UHF ENERGY IS     -334.1037059847 AFTER   1 ITERATIONS
 ...... END OF UHF CALCULATION ......
 CPU     0: STEP CPU TIME=     0.28 TOTAL CPU TIME=         24.1 (      0.4 MIN)
 TOTAL WALL CLOCK TIME=         24.5 SECONDS, CPU UTILIZATION IS    98.36%

 XEDA STEP ENERGY SUMMATION
 ETOT =       -155.37060425     ENUC =        105.34450451
 EEXCH=        -23.02070274

          --------------------------------------------------
          MONOMER EXCHANGE-REPULSION INTERACTION (OWN BASIS)
          --------------------------------------------------

          -------------
          GUESS OPTIONS
          -------------
          GUESS =MOSAVED           NORB  =       0          NORDER=       0
          MIX   =       F          PRTMO =       F          PUNMO =       F
          TOLZ  = 1.0E-08          TOLE  = 1.0E-05
          SYMDEN=       F          PURIFY=       F

 INITIAL GUESS ORBITALS GENERATED BY MOSAVED  ROUTINE.

 STATISTICS FOR GENERATION OF SYMMETRY ORBITAL -Q- MATRIX
 NUMBER OF CARTESIAN ATOMIC ORBITALS=        154
 NUMBER OF SPHERICAL CONTAMINANTS DROPPED=     8
 NUMBER OF LINEARLY DEPENDENT MOS DROPPED=     0
 TOTAL NUMBER OF MOS IN VARIATION SPACE=     146
 ...... END OF INITIAL ORBITAL SELECTION ......
 CPU     0: STEP CPU TIME=     0.01 TOTAL CPU TIME=         24.1 (      0.4 MIN)
 TOTAL WALL CLOCK TIME=         24.5 SECONDS, CPU UTILIZATION IS    98.36%

          ---------------------------
                  UHF SCF CALCULATION
          ---------------------------

 FINAL UHF ENERGY IS     -154.6082411004 AFTER   1 ITERATIONS
 ...... END OF UHF CALCULATION ......
 CPU     0: STEP CPU TIME=     0.08 TOTAL CPU TIME=         24.2 (      0.4 MIN)
 TOTAL WALL CLOCK TIME=         24.6 SECONDS, CPU UTILIZATION IS    98.32%

 XEDA STEP ENERGY SUMMATION
 ETOT =       -154.60824110     ENUC =        105.34450451

          ---------------------------------------------
          MONOMER ELECTROSTATIC INTERACTION (ALL BASIS)
          ---------------------------------------------

          -------------
          GUESS OPTIONS
          -------------
          GUESS =MOSAVED           NORB  =       0          NORDER=       0
          MIX   =       F          PRTMO =       F          PUNMO =       F
          TOLZ  = 1.0E-08          TOLE  = 1.0E-05
          SYMDEN=       F          PURIFY=       F

 INITIAL GUESS ORBITALS GENERATED BY MOSAVED  ROUTINE.

 STATISTICS FOR GENERATION OF SYMMETRY ORBITAL -Q- MATRIX
 NUMBER OF CARTESIAN ATOMIC ORBITALS=        154
 NUMBER OF SPHERICAL CONTAMINANTS DROPPED=     8
 NUMBER OF LINEARLY DEPENDENT MOS DROPPED=     0
 TOTAL NUMBER OF MOS IN VARIATION SPACE=     146
 ...... END OF INITIAL ORBITAL SELECTION ......
 CPU     0: STEP CPU TIME=     0.01 TOTAL CPU TIME=         24.2 (      0.4 MIN)
 TOTAL WALL CLOCK TIME=         24.6 SECONDS, CPU UTILIZATION IS    98.32%

          ---------------------------
                  UHF SCF CALCULATION
          ---------------------------

 FINAL UHF ENERGY IS     -155.3769458170 AFTER   1 ITERATIONS
 ...... END OF UHF CALCULATION ......
 CPU     0: STEP CPU TIME=     0.08 TOTAL CPU TIME=         24.3 (      0.4 MIN)
 TOTAL WALL CLOCK TIME=         24.7 SECONDS, CPU UTILIZATION IS    98.28%

          -------------
          GUESS OPTIONS
          -------------
          GUESS =MOSAVED           NORB  =       0          NORDER=       0
          MIX   =       F          PRTMO =       F          PUNMO =       F
          TOLZ  = 1.0E-08          TOLE  = 1.0E-05
          SYMDEN=       F          PURIFY=       F

 INITIAL GUESS ORBITALS GENERATED BY MOSAVED  ROUTINE.

 STATISTICS FOR GENERATION OF SYMMETRY ORBITAL -Q- MATRIX
 NUMBER OF CARTESIAN ATOMIC ORBITALS=        154
 NUMBER OF SPHERICAL CONTAMINANTS DROPPED=     8
 NUMBER OF LINEARLY DEPENDENT MOS DROPPED=     0
 TOTAL NUMBER OF MOS IN VARIATION SPACE=     146
 ...... END OF INITIAL ORBITAL SELECTION ......
 CPU     0: STEP CPU TIME=     0.01 TOTAL CPU TIME=         24.3 (      0.4 MIN)
 TOTAL WALL CLOCK TIME=         24.7 SECONDS, CPU UTILIZATION IS    98.28%

          ---------------------------
                  UHF SCF CALCULATION
          ---------------------------

 DIRECT SCF CALCULATION, SCHWRZ=T   FDIFF=T
 SCHWARZ INEQUALITY OVERHEAD:     11935 INTEGRALS, T=        0.00

 FINAL UHF ENERGY IS     -334.1271447838 AFTER   1 ITERATIONS
 ...... END OF UHF CALCULATION ......
 CPU     0: STEP CPU TIME=     0.28 TOTAL CPU TIME=         24.6 (      0.4 MIN)
 TOTAL WALL CLOCK TIME=         25.0 SECONDS, CPU UTILIZATION IS    98.27%

 XEDA STEP ENERGY SUMMATION
 ETOT =       -155.37694582     ENUC =        105.34450451
 EEXCH=        -23.02126038

          --------------------------------------------------
          MONOMER EXCHANGE-REPULSION INTERACTION (ALL BASIS)
          --------------------------------------------------

          -------------
          GUESS OPTIONS
          -------------
          GUESS =MOSAVED           NORB  =       0          NORDER=       0
          MIX   =       F          PRTMO =       F          PUNMO =       F
          TOLZ  = 1.0E-08          TOLE  = 1.0E-05
          SYMDEN=       F          PURIFY=       F

 INITIAL GUESS ORBITALS GENERATED BY MOSAVED  ROUTINE.

 STATISTICS FOR GENERATION OF SYMMETRY ORBITAL -Q- MATRIX
 NUMBER OF CARTESIAN ATOMIC ORBITALS=        154
 NUMBER OF SPHERICAL CONTAMINANTS DROPPED=     8
 NUMBER OF LINEARLY DEPENDENT MOS DROPPED=     0
 TOTAL NUMBER OF MOS IN VARIATION SPACE=     146
 ...... END OF INITIAL ORBITAL SELECTION ......
 CPU     0: STEP CPU TIME=     0.01 TOTAL CPU TIME=         24.6 (      0.4 MIN)
 TOTAL WALL CLOCK TIME=         25.0 SECONDS, CPU UTILIZATION IS    98.27%

          ---------------------------
                  UHF SCF CALCULATION
          ---------------------------

 FINAL UHF ENERGY IS     -154.6129222354 AFTER   1 ITERATIONS
 ...... END OF UHF CALCULATION ......
 CPU     0: STEP CPU TIME=     0.08 TOTAL CPU TIME=         24.6 (      0.4 MIN)
 TOTAL WALL CLOCK TIME=         25.1 SECONDS, CPU UTILIZATION IS    98.23%

 XEDA STEP ENERGY SUMMATION
 ETOT =       -154.61292224     ENUC =        105.34450451

          --------------------------------
          RESULTS OF INTERACTION ANALYSIS
          --------------------------------

     ENERGY TERMS
     T   ELECTRON KINETIC AND COULOMB POTENTIAL
     X   E-E EXCHANGE COMBINE WITH DIAGNANAL VALUE
     N   NUCLEUS-NUCLEUS REPULSION ENERGY

 --------------
 MONOMER ENERGY
 --------------

 MONOMER    1

                   OWN BASIS           ALL BASIS

 T              -94.18341433        -94.18368135
 X              -11.33100990        -11.33132082
 N               28.13454066         28.13454066
 EC              -0.47354461         -0.47410121
 E              -77.85342817        -77.85456271

 MONOMER    2

                   OWN BASIS           ALL BASIS

 T              -94.18127764        -94.18153671
 X              -11.33088017        -11.33119404
 N               28.13225170         28.13225170
 EC              -0.47356101         -0.47413026
 E              -77.85346712        -77.85460931

 ------------------------------------------------------------
 SUPER MOLECULE ENERGY  USING NON-ANTISYMMETRIC WAVEFUNCTION
 (ELECTROSTATIC ENERGY: T N CHANGE)
 ------------------------------------------------------------

              FROM OWN BASIS      FROM ALL BASIS
 T             -237.69440601       -237.70018995
 X              -22.66189007        -22.66251485
 N              105.34450451        105.34450451
 E             -155.01179157       -155.01820029

 ----------------------------------------------------------------------
 SUPER MOLECULE ENERGY  USING ANTISYMMETRIC NONORTHONORMAL WAVEFUNCTION
 (EXCHANGE ENERGY: ONLY X CHANGES)
 ----------------------------------------------------------------------

              FROM OWN BASIS      FROM ALL BASIS
 T             -237.69440601       -237.70018995
 X              -23.02070274        -23.02126038
 N              105.34450451        105.34450451
 E             -155.37060425       -155.37694582

 -----------------------------------------------------------------------
 SUPER MOLECULE ENERGY  USING ANTISYMMETRIC AND ORTHONORMAL WAVEFUNCTION
 (REPULSION ENERGY: T X CHANGE)
 -----------------------------------------------------------------------

              FROM OWN BASIS      FROM ALL BASIS
 T+X           -259.95274561       -259.95742674
 N              105.34450451        105.34450451
 E             -154.60824110       -154.61292224

 ---------------------------------------------
 SUPER MOLECULE ENERGY  USING SCF WAVEFUNCTION
 (POLARIZATION ENERGY: T X CHANGE)
 ---------------------------------------------
 T+X           -260.25564463
 N              105.34450451
 EC              -0.98433236
 E             -155.89547248


                   *******************************
                   SUMMARY OF INTERACTION ENERGIES
                     XEDA IN XIAMEN UNIVERSITY    
                    - ZHEN TANG AND PEIFENG SU -  
                   *******************************


 -------------
 OWN BASIS SET                                       HARTREE          KCAL/MOL
 -------------
 ELECTROSTATIC ENERGY                  ES=         -0.252002           -158.13
 EXCHANGE ENERGY                       EX=         -0.358813           -225.16
 REPULSION ENERGY                     REP=          0.762363            478.39
 POLARIZATION ENERGY                  POL=         -0.302899           -190.07
 ELECTRON CORRELATION                CORR=         -0.037227            -23.36
 TOTAL INTERACTION ENERGY               E=         -0.188577           -118.33
  

 -------------
 ALL BASIS SET                                       HARTREE          KCAL/MOL
 -------------
 ELECTROSTATIC ENERGY                  ES=         -0.257260           -161.43
 EXCHANGE ENERGY                       EX=         -0.358746           -225.12
 REPULSION ENERGY                     REP=          0.764024            479.43
 POLARIZATION ENERGY                  POL=         -0.298218           -187.13
 ELECTRON CORRELATION                CORR=         -0.036101            -22.65
 TOTAL INTERACTION ENERGY               E=         -0.186300           -116.91
  

                     ***************************
                     END OF INTERACTION ANALYSIS
                     ***************************

              1301896  WORDS OF DYNAMIC MEMORY USED
 EXECUTION OF GAMESS TERMINATED NORMALLY 14:17:05 25-DEC-2023    
 DDI: 263640 bytes (0.3 MB / 0 MWords) used by master data server.

 ----------------------------------------
 CPU timing information for all processes
 ========================================
 0: 23.938 + 0.778 = 24.716
 1: 23.733 + 0.635 = 24.368
 2: 23.771 + 0.701 = 24.473
 3: 23.731 + 0.621 = 24.353
 4: 23.768 + 0.711 = 24.479
 5: 23.763 + 0.560 = 24.323
 6: 23.858 + 0.592 = 24.451
 7: 23.742 + 0.647 = 24.389
 8: 23.738 + 0.712 = 24.451
 9: 23.781 + 0.632 = 24.414
 10: 23.761 + 0.630 = 24.392
 11: 23.741 + 0.614 = 24.356
 12: 23.727 + 0.642 = 24.369
 13: 23.703 + 0.554 = 24.257
 14: 23.733 + 0.624 = 24.357
 15: 23.706 + 0.654 = 24.361
 ----------------------------------------
 ddikick.x: exited gracefully.
----- accounting info -----
Files used on the master node w012 were:
-rw-r--r-- 1 xacs0647 10000  2703863 Dec 25 14:17 /job_dir/5_1685727/5.dat
-rw-r--r-- 1 xacs0647 10000      238 Dec 25 14:17 /job_dir/5_1685727/5.err
-rw-r--r-- 1 xacs0647 10000      837 Dec 25 14:16 /job_dir/5_1685727/5.F05
-rw-r--r-- 1 xacs0647 10000 50584496 Dec 25 14:17 /job_dir/5_1685727/5.F08
-rw-r--r-- 1 xacs0647 10000 52924704 Dec 25 14:17 /job_dir/5_1685727/5.F08.001
-rw-r--r-- 1 xacs0647 10000 53104720 Dec 25 14:17 /job_dir/5_1685727/5.F08.002
-rw-r--r-- 1 xacs0647 10000 53104720 Dec 25 14:17 /job_dir/5_1685727/5.F08.003
-rw-r--r-- 1 xacs0647 10000 50224464 Dec 25 14:17 /job_dir/5_1685727/5.F08.004
-rw-r--r-- 1 xacs0647 10000 48604320 Dec 25 14:17 /job_dir/5_1685727/5.F08.005
-rw-r--r-- 1 xacs0647 10000 57965152 Dec 25 14:17 /job_dir/5_1685727/5.F08.006
-rw-r--r-- 1 xacs0647 10000 47524224 Dec 25 14:17 /job_dir/5_1685727/5.F08.007
-rw-r--r-- 1 xacs0647 10000 50764512 Dec 25 14:17 /job_dir/5_1685727/5.F08.008
-rw-r--r-- 1 xacs0647 10000 51844608 Dec 25 14:17 /job_dir/5_1685727/5.F08.009
-rw-r--r-- 1 xacs0647 10000 48424304 Dec 25 14:17 /job_dir/5_1685727/5.F08.010
-rw-r--r-- 1 xacs0647 10000 48964352 Dec 25 14:17 /job_dir/5_1685727/5.F08.011
-rw-r--r-- 1 xacs0647 10000 52384656 Dec 25 14:17 /job_dir/5_1685727/5.F08.012
-rw-r--r-- 1 xacs0647 10000 46264112 Dec 25 14:17 /job_dir/5_1685727/5.F08.013
-rw-r--r-- 1 xacs0647 10000 47704240 Dec 25 14:17 /job_dir/5_1685727/5.F08.014
-rw-r--r-- 1 xacs0647 10000 47344208 Dec 25 14:17 /job_dir/5_1685727/5.F08.015
-rw-r--r-- 1 xacs0647 10000  5758720 Dec 25 14:17 /job_dir/5_1685727/5.F10
-rw-r--r-- 1 xacs0647 10000      837 Dec 25 14:16 /job_dir/5_1685727/5.inp
-rw-r--r-- 1 xacs0647 10000  2403470 Dec 25 14:17 /job_dir/5_1685727/5.out
Mon Dec 25 14:17:08 CST 2023
0.094u 0.097s 0:28.41 0.6%	0+0k 128+40io 0pf+0w
