 Entering Gaussian System, Link 0=/home/rkdql/gaussian_c01/g16/g16
 Initial command:
 /home/rkdql/gaussian_c01/g16/l1.exe "/tmp/webmo-1487/61/Gau-2752.inp" -scrdir="/tmp/webmo-1487/61/"
 Entering Link 1 = /home/rkdql/gaussian_c01/g16/l1.exe PID=      2754.
  
 Copyright (c) 1988-2019, Gaussian, Inc.  All Rights Reserved.
  
 This is part of the Gaussian(R) 16 program.  It is based on
 the Gaussian(R) 09 system (copyright 2009, Gaussian, Inc.),
 the Gaussian(R) 03 system (copyright 2003, Gaussian, Inc.),
 the Gaussian(R) 98 system (copyright 1998, Gaussian, Inc.),
 the Gaussian(R) 94 system (copyright 1995, Gaussian, Inc.),
 the Gaussian 92(TM) system (copyright 1992, Gaussian, Inc.),
 the Gaussian 90(TM) system (copyright 1990, Gaussian, Inc.),
 the Gaussian 88(TM) system (copyright 1988, Gaussian, Inc.),
 the Gaussian 86(TM) system (copyright 1986, Carnegie Mellon
 University), and the Gaussian 82(TM) system (copyright 1983,
 Carnegie Mellon University). Gaussian is a federally registered
 trademark of Gaussian, Inc.
  
 This software contains proprietary and confidential information,
 including trade secrets, belonging to Gaussian, Inc.
  
 This software is provided under written license and may be
 used, copied, transmitted, or stored only in accord with that
 written license.
  
 The following legend is applicable only to US Government
 contracts under FAR:
  
                    RESTRICTED RIGHTS LEGEND
  
 Use, reproduction and disclosure by the US Government is
 subject to restrictions as set forth in subparagraphs (a)
 and (c) of the Commercial Computer Software - Restricted
 Rights clause in FAR 52.227-19.
  
 Gaussian, Inc.
 340 Quinnipiac St., Bldg. 40, Wallingford CT 06492
  
  
 ---------------------------------------------------------------
 Warning -- This program may not be used in any manner that
 competes with the business of Gaussian, Inc. or will provide
 assistance to any competitor of Gaussian, Inc.  The licensee
 of this program is prohibited from giving any competitor of
 Gaussian, Inc. access to this program.  By using this program,
 the user acknowledges that Gaussian, Inc. is engaged in the
 business of creating and licensing software in the field of
 computational chemistry and represents and warrants to the
 licensee that it is not a competitor of Gaussian, Inc. and that
 it will not use this program in any manner prohibited above.
 ---------------------------------------------------------------
  

 Cite this work as:
 Gaussian 16, Revision C.01,
 M. J. Frisch, G. W. Trucks, H. B. Schlegel, G. E. Scuseria, 
 M. A. Robb, J. R. Cheeseman, G. Scalmani, V. Barone, 
 G. A. Petersson, H. Nakatsuji, X. Li, M. Caricato, A. V. Marenich, 
 J. Bloino, B. G. Janesko, R. Gomperts, B. Mennucci, H. P. Hratchian, 
 J. V. Ortiz, A. F. Izmaylov, J. L. Sonnenberg, D. Williams-Young, 
 F. Ding, F. Lipparini, F. Egidi, J. Goings, B. Peng, A. Petrone, 
 T. Henderson, D. Ranasinghe, V. G. Zakrzewski, J. Gao, N. Rega, 
 G. Zheng, W. Liang, M. Hada, M. Ehara, K. Toyota, R. Fukuda, 
 J. Hasegawa, M. Ishida, T. Nakajima, Y. Honda, O. Kitao, H. Nakai, 
 T. Vreven, K. Throssell, J. A. Montgomery, Jr., J. E. Peralta, 
 F. Ogliaro, M. J. Bearpark, J. J. Heyd, E. N. Brothers, K. N. Kudin, 
 V. N. Staroverov, T. A. Keith, R. Kobayashi, J. Normand, 
 K. Raghavachari, A. P. Rendell, J. C. Burant, S. S. Iyengar, 
 J. Tomasi, M. Cossi, J. M. Millam, M. Klene, C. Adamo, R. Cammi, 
 J. W. Ochterski, R. L. Martin, K. Morokuma, O. Farkas, 
 J. B. Foresman, and D. J. Fox, Gaussian, Inc., Wallingford CT, 2019.
 
 ******************************************
 Gaussian 16:  ES64L-G16RevC.01  3-Jul-2019
                31-Jan-2024 
 ******************************************
 ------------------------------------
 #N CCSD/cc-pVTZ SP Geom=Connectivity
 ------------------------------------
 1/38=1,57=2,172=1/1;
 2/12=2,17=6,18=5,40=1/2;
 3/5=16,6=1,11=9,25=1,30=1/1,2,3;
 4//1;
 5/5=2,38=5/2;
 8/6=4,9=120000,10=1/1,4;
 9/5=7/13;
 6/7=2,8=2,9=2,10=2/1;
 99/5=1,9=1/99;
 ----------
 product_sp
 ----------
 Symbolic Z-matrix:
 Charge =  0 Multiplicity = 1
 N
 Cl                   1    B1
 F                    1    B2       2    A1
 H                    1    B3       2    A2       3    D1       0
       Variables:
  B1                    1.74785                  
  B2                    1.39897                  
  B3                    1.01956                  
  A1                  106.17768                  
  A2                  101.7231                   
  D1                  104.85323                  
 
                          Input orientation:                          
 ---------------------------------------------------------------------
 Center     Atomic      Atomic             Coordinates (Angstroms)
 Number     Number       Type             X           Y           Z
 ---------------------------------------------------------------------
      1          7           0        0.000000    0.000000    0.000000
      2         17           0        0.000000    0.000000    1.747850
      3          9           0        1.343574    0.000000   -0.389777
      4          1           0       -0.255907   -0.964939   -0.207157
 ---------------------------------------------------------------------
                    Distance matrix (angstroms):
                    1          2          3          4
     1  N    0.000000
     2  Cl   1.747850   0.000000
     3  F    1.398970   2.524805   0.000000
     4  H    1.019564   2.195142   1.876912   0.000000
 Stoichiometry    ClFHN
 Framework group  C1[X(ClFHN)]
 Deg. of freedom     6
 Full point group                 C1      NOp   1
 Largest Abelian subgroup         C1      NOp   1
 Largest concise Abelian subgroup C1      NOp   1
                         Standard orientation:                         
 ---------------------------------------------------------------------
 Center     Atomic      Atomic             Coordinates (Angstroms)
 Number     Number       Type             X           Y           Z
 ---------------------------------------------------------------------
      1          7           0       -0.533328    0.629626   -0.160710
      2         17           0        1.036449   -0.119719    0.010348
      3          9           0       -1.473894   -0.389160    0.025106
      4          1           0       -0.621303    1.130278    0.723099
 ---------------------------------------------------------------------
 Rotational constants (GHZ):          45.7094056           6.0130523           5.4071477
 Standard basis: CC-pVTZ (5D, 7F)
 There are   124 symmetry adapted cartesian basis functions of A   symmetry.
 There are   108 symmetry adapted basis functions of A   symmetry.
   108 basis functions,   215 primitive gaussians,   124 cartesian basis functions
    17 alpha electrons       17 beta electrons
       nuclear repulsion energy       102.1950763297 Hartrees.
 NAtoms=    4 NActive=    4 NUniq=    4 SFac= 1.00D+00 NAtFMM=   60 NAOKFM=F Big=F
 Integral buffers will be    131072 words long.
 Raffenetti 1 integral format.
 Two-electron integral symmetry is turned on.
 One-electron integrals computed using PRISM.
 NBasis=   108 RedAO= T EigKep=  2.02D-03  NBF=   108
 NBsUse=   108 1.00D-06 EigRej= -1.00D+00 NBFU=   108
 ExpMin= 1.03D-01 ExpMax= 4.56D+05 ExpMxC= 1.44D+03 IAcc=3 IRadAn=         5 AccDes= 0.00D+00
 Harris functional with IExCor=  205 and IRadAn=       5 diagonalized for initial guess.
 HarFok:  IExCor=  205 AccDes= 0.00D+00 IRadAn=         5 IDoV= 1 UseB2=F ITyADJ=14
 ICtDFT=  3500011 ScaDFX=  1.000000  1.000000  1.000000  1.000000
 FoFCou: FMM=F IPFlag=           0 FMFlag=      100000 FMFlg1=           0
         NFxFlg=           0 DoJE=T BraDBF=F KetDBF=T FulRan=T
         wScrn=  0.000000 ICntrl=       500 IOpCl=  0 I1Cent=   200000004 NGrid=           0
         NMat0=    1 NMatS0=      1 NMatT0=    0 NMatD0=    1 NMtDS0=    0 NMtDT0=    0
 Petite list used in FoFCou.
 Keep R1 ints in memory in canonical form, NReq=19346284.
 Requested convergence on RMS density matrix=1.00D-08 within 128 cycles.
 Requested convergence on MAX density matrix=1.00D-06.
 Requested convergence on             energy=1.00D-06.
 No special actions if energy rises.
 SCF Done:  E(RHF) =  -613.917296931     A.U. after   13 cycles
            NFock= 13  Conv=0.67D-08     -V/T= 2.0003
 ExpMin= 1.03D-01 ExpMax= 4.56D+05 ExpMxC= 1.44D+03 IAcc=3 IRadAn=         5 AccDes= 0.00D+00
 HarFok:  IExCor=  205 AccDes= 0.00D+00 IRadAn=         5 IDoV=-2 UseB2=F ITyADJ=14
 ICtDFT= 12500011 ScaDFX=  1.000000  1.000000  1.000000  1.000000
 Range of M.O.s used for correlation:     8   108
 NBasis=   108 NAE=    17 NBE=    17 NFC=     7 NFV=     0
 NROrb=    101 NOA=    10 NOB=    10 NVA=    91 NVB=    91
 Semi-Direct transformation.
 ModeAB=           2 MOrb=            10 LenV=     104382943
 LASXX=      4780810 LTotXX=     4780810 LenRXX=     4780810
 LTotAB=     4920665 MaxLAS=     7827500 LenRXY=     7827500
 NonZer=     9561620 LenScr=    15093760 LnRSAI=           0
 LnScr1=           0 LExtra=           0 Total=     27702070
 MaxDsk=          -1 SrtSym=           F ITran=            4
 JobTyp=0 Pass  1:  I=   1 to  10.
 (rs|ai) integrals will be sorted in core.
 SymMOI:  orbitals are not symmetric.
 Spin components of T(2) and E(2):
     alpha-alpha T2 =       0.2305317131D-01 E2=     -0.8263774450D-01
     alpha-beta  T2 =       0.1311846533D+00 E2=     -0.4901582421D+00
     beta-beta   T2 =       0.2305317131D-01 E2=     -0.8263774450D-01
 ANorm=    0.1085030412D+01
 E2 =    -0.6554337311D+00 EUMP2 =    -0.61457273066256D+03
 Keep R2 and R3 ints in memory in canonical form, NReq=36676129.
 CIDS: In Core Option IDoMem=           1.
 Iterations=  50 Convergence= 0.100D-06
 Produce multiple copies of IABC intergrals
 Iteration Nr.   1
 **********************
 DD1Dir will call FoFMem   1 times, MxPair=       110
 NAB=    55 NAA=     0 NBB=     0.
 MP4(R+Q)=  0.15251376D-01
 E3=       -0.17239794D-01        EUMP3=      -0.61458997046D+03
 E4(DQ)=    0.41679134D-03        UMP4(DQ)=   -0.61458955367D+03
 E4(SDQ)=  -0.61305601D-02        UMP4(SDQ)=  -0.61459610102D+03
 DE(Corr)= -0.65712362     E(Corr)=     -614.57442055    
 NORM(A)=   0.10883252D+01
 Iteration Nr.   2
 **********************
 DD1Dir will call FoFMem   1 times, MxPair=       110
 NAB=    55 NAA=     0 NBB=     0.
 DE(Corr)= -0.67471048     E(CORR)=     -614.59200741     Delta=-1.76D-02
 NORM(A)=   0.10950769D+01
 Iteration Nr.   3
 **********************
 DD1Dir will call FoFMem   1 times, MxPair=       110
 NAB=    55 NAA=     0 NBB=     0.
 DE(Corr)= -0.67490373     E(CORR)=     -614.59220066     Delta=-1.93D-04
 NORM(A)=   0.10967172D+01
 Iteration Nr.   4
 **********************
 DD1Dir will call FoFMem   1 times, MxPair=       110
 NAB=    55 NAA=     0 NBB=     0.
 DE(Corr)= -0.67637200     E(CORR)=     -614.59366893     Delta=-1.47D-03
 NORM(A)=   0.10972322D+01
 Iteration Nr.   5
 **********************
 DD1Dir will call FoFMem   1 times, MxPair=       110
 NAB=    55 NAA=     0 NBB=     0.
 DE(Corr)= -0.67654244     E(CORR)=     -614.59383937     Delta=-1.70D-04
 NORM(A)=   0.10974724D+01
 Iteration Nr.   6
 **********************
 DD1Dir will call FoFMem   1 times, MxPair=       110
 NAB=    55 NAA=     0 NBB=     0.
 DE(Corr)= -0.67657236     E(CORR)=     -614.59386929     Delta=-2.99D-05
 NORM(A)=   0.10975297D+01
 Iteration Nr.   7
 **********************
 DD1Dir will call FoFMem   1 times, MxPair=       110
 NAB=    55 NAA=     0 NBB=     0.
 DE(Corr)= -0.67657878     E(CORR)=     -614.59387571     Delta=-6.42D-06
 NORM(A)=   0.10975434D+01
 Iteration Nr.   8
 **********************
 DD1Dir will call FoFMem   1 times, MxPair=       110
 NAB=    55 NAA=     0 NBB=     0.
 DE(Corr)= -0.67657556     E(CORR)=     -614.59387249     Delta= 3.22D-06
 NORM(A)=   0.10975528D+01
 Iteration Nr.   9
 **********************
 DD1Dir will call FoFMem   1 times, MxPair=       110
 NAB=    55 NAA=     0 NBB=     0.
 DE(Corr)= -0.67657690     E(CORR)=     -614.59387383     Delta=-1.34D-06
 NORM(A)=   0.10975540D+01
 Iteration Nr.  10
 **********************
 DD1Dir will call FoFMem   1 times, MxPair=       110
 NAB=    55 NAA=     0 NBB=     0.
 DE(Corr)= -0.67657722     E(CORR)=     -614.59387415     Delta=-3.22D-07
 NORM(A)=   0.10975559D+01
 Iteration Nr.  11
 **********************
 DD1Dir will call FoFMem   1 times, MxPair=       110
 NAB=    55 NAA=     0 NBB=     0.
 DE(Corr)= -0.67657866     E(CORR)=     -614.59387559     Delta=-1.44D-06
 NORM(A)=   0.10975567D+01
 Iteration Nr.  12
 **********************
 DD1Dir will call FoFMem   1 times, MxPair=       110
 NAB=    55 NAA=     0 NBB=     0.
 DE(Corr)= -0.67657871     E(CORR)=     -614.59387565     Delta=-5.20D-08
 NORM(A)=   0.10975571D+01
 Wavefunction amplitudes converged. E(Corr)=     -614.59387565    
 Largest amplitude= 5.05D-02
 Discarding MO integrals.

 **********************************************************************

            Population analysis using the SCF Density.

 **********************************************************************

 Orbital symmetries:
       Occupied  (A) (A) (A) (A) (A) (A) (A) (A) (A) (A) (A) (A)
                 (A) (A) (A) (A) (A)
       Virtual   (A) (A) (A) (A) (A) (A) (A) (A) (A) (A) (A) (A)
                 (A) (A) (A) (A) (A) (A) (A) (A) (A) (A) (A) (A)
                 (A) (A) (A) (A) (A) (A) (A) (A) (A) (A) (A) (A)
                 (A) (A) (A) (A) (A) (A) (A) (A) (A) (A) (A) (A)
                 (A) (A) (A) (A) (A) (A) (A) (A) (A) (A) (A) (A)
                 (A) (A) (A) (A) (A) (A) (A) (A) (A) (A) (A) (A)
                 (A) (A) (A) (A) (A) (A) (A) (A) (A) (A) (A) (A)
                 (A) (A) (A) (A) (A) (A) (A)
 The electronic state is 1-A.
 Alpha  occ. eigenvalues -- -104.88111 -26.33447 -15.73631 -10.60381  -8.07072
 Alpha  occ. eigenvalues --   -8.06822  -8.06798  -1.64424  -1.23516  -1.02694
 Alpha  occ. eigenvalues --   -0.76891  -0.72068  -0.70313  -0.60417  -0.53681
 Alpha  occ. eigenvalues --   -0.48804  -0.44574
 Alpha virt. eigenvalues --    0.10507   0.16101   0.23280   0.45168   0.47958
 Alpha virt. eigenvalues --    0.48289   0.51750   0.54867   0.57872   0.59872
 Alpha virt. eigenvalues --    0.61992   0.62711   0.67625   0.69357   0.76070
 Alpha virt. eigenvalues --    0.83394   0.89519   0.99281   1.04084   1.07865
 Alpha virt. eigenvalues --    1.11161   1.24476   1.41504   1.46309   1.54313
 Alpha virt. eigenvalues --    1.60658   1.79895   1.84048   1.91285   2.16142
 Alpha virt. eigenvalues --    2.18813   2.22709   2.23490   2.24631   2.29470
 Alpha virt. eigenvalues --    2.32942   2.35192   2.38628   2.39286   2.40198
 Alpha virt. eigenvalues --    2.50769   2.54756   2.55349   2.57509   2.62396
 Alpha virt. eigenvalues --    2.66906   2.73856   2.82443   2.96157   3.01642
 Alpha virt. eigenvalues --    3.42436   3.46193   3.57419   3.74405   3.78365
 Alpha virt. eigenvalues --    3.92639   4.13071   4.14882   4.18942   4.26740
 Alpha virt. eigenvalues --    4.38323   4.53222   4.57738   4.62694   4.67634
 Alpha virt. eigenvalues --    5.03969   5.07543   5.10276   5.20454   5.35599
 Alpha virt. eigenvalues --    5.41903   5.70116   5.84179   5.88940   5.95663
 Alpha virt. eigenvalues --    6.10274   6.47415   7.37855   7.38397   7.43065
 Alpha virt. eigenvalues --    7.46281   7.73445   7.77142   8.01336   8.87560
 Alpha virt. eigenvalues --    8.89223   9.19604   9.25961   9.41642  10.63492
 Alpha virt. eigenvalues --   11.64102
          Condensed to atoms (all electrons):
               1          2          3          4
     1  N    6.261658   0.163966   0.123001   0.360157
     2  Cl   0.163966  16.926857  -0.039932  -0.029356
     3  F    0.123001  -0.039932   9.171094  -0.024049
     4  H    0.360157  -0.029356  -0.024049   0.532817
 Mulliken charges:
               1
     1  N    0.091218
     2  Cl  -0.021534
     3  F   -0.230114
     4  H    0.160431
 Sum of Mulliken charges =  -0.00000
 Mulliken charges with hydrogens summed into heavy atoms:
               1
     1  N    0.251649
     2  Cl  -0.021534
     3  F   -0.230114
 Electronic spatial extent (au):  <R**2>=            217.9129
 Charge=             -0.0000 electrons
 Dipole moment (field-independent basis, Debye):
    X=              0.4151    Y=              1.2390    Z=              1.3610  Tot=              1.8867
 Quadrupole moment (field-independent basis, Debye-Ang):
   XX=            -23.9912   YY=            -22.2776   ZZ=            -23.1916
   XY=             -1.6394   XZ=             -0.9183   YZ=              1.9204
 Traceless Quadrupole moment (field-independent basis, Debye-Ang):
   XX=             -0.8377   YY=              0.8758   ZZ=             -0.0381
   XY=             -1.6394   XZ=             -0.9183   YZ=              1.9204
 Octapole moment (field-independent basis, Debye-Ang**2):
  XXX=             -2.6325  YYY=             -0.3539  ZZZ=              1.8707  XYY=             -3.0661
  XXY=             -1.1454  XXZ=              1.0686  XZZ=             -3.6044  YZZ=              0.0586
  YYZ=              2.5454  XYZ=             -1.3682
 Hexadecapole moment (field-independent basis, Debye-Ang**3):
 XXXX=           -168.9842 YYYY=            -41.9398 ZZZZ=            -24.3601 XXXY=             -2.0841
 XXXZ=             -0.4108 YYYX=              2.1904 YYYZ=              3.4432 ZZZX=             -1.5057
 ZZZY=              2.2975 XXYY=            -35.1867 XXZZ=            -33.7948 YYZZ=            -10.7592
 XXYZ=              0.8339 YYXZ=             -1.7123 ZZXY=              0.5954
 N-N= 1.021950763297D+02 E-N=-1.666059097223D+03  KE= 6.137072513033D+02
 Unable to Open any file for archive entry.
 1\1\GINC-LAPTOP-P4FAIH0F\SP\RCCSD-FC\CC-pVTZ\Cl1F1H1N1\RKDQL\31-Jan-20
 24\0\\#N CCSD/cc-pVTZ SP Geom=Connectivity\\product_sp\\0,1\N\Cl,1,1.7
 47849707\F,1,1.398969942,2,106.1776824\H,1,1.019563816,2,101.7231048,3
 ,104.8532251,0\\Version=ES64L-G16RevC.01\State=1-A\HF=-613.9172969\MP2
 =-614.5727307\MP3=-614.5899705\MP4D=-614.604805\MP4DQ=-614.5895537\MP4
 SDQ=-614.596101\CCSD=-614.5938756\RMSD=6.699e-09\PG=C01 [X(Cl1F1H1N1)]
 \\@
 The archive entry for this job was punched.


 THE MORE ACCURATE THE CALCULATIONS BECOME, THE MORE THE CONCEPTS
 TEND TO VANISH INTO THIN AIR.
     -- R.S. MULLIKEN, J.C.P. 43,S2(1965)
 Job cpu time:       0 days  0 hours  1 minutes  9.3 seconds.
 Elapsed time:       0 days  0 hours  1 minutes 12.3 seconds.
 File lengths (MBytes):  RWF=    455 Int=      0 D2E=      0 Chk=      2 Scr=      1
 Normal termination of Gaussian 16 at Wed Jan 31 16:07:39 2024.