 Entering Gaussian System, Link 0=/home/rkdql/gaussian_c01/g16/g16
 Initial command:
 /home/rkdql/gaussian_c01/g16/l1.exe "/tmp/webmo-1487/59/Gau-2295.inp" -scrdir="/tmp/webmo-1487/59/"
 Entering Link 1 = /home/rkdql/gaussian_c01/g16/l1.exe PID=      2299.
  
 Copyright (c) 1988-2019, Gaussian, Inc.  All Rights Reserved.
  
 This is part of the Gaussian(R) 16 program.  It is based on
 the Gaussian(R) 09 system (copyright 2009, Gaussian, Inc.),
 the Gaussian(R) 03 system (copyright 2003, Gaussian, Inc.),
 the Gaussian(R) 98 system (copyright 1998, Gaussian, Inc.),
 the Gaussian(R) 94 system (copyright 1995, Gaussian, Inc.),
 the Gaussian 92(TM) system (copyright 1992, Gaussian, Inc.),
 the Gaussian 90(TM) system (copyright 1990, Gaussian, Inc.),
 the Gaussian 88(TM) system (copyright 1988, Gaussian, Inc.),
 the Gaussian 86(TM) system (copyright 1986, Carnegie Mellon
 University), and the Gaussian 82(TM) system (copyright 1983,
 Carnegie Mellon University). Gaussian is a federally registered
 trademark of Gaussian, Inc.
  
 This software contains proprietary and confidential information,
 including trade secrets, belonging to Gaussian, Inc.
  
 This software is provided under written license and may be
 used, copied, transmitted, or stored only in accord with that
 written license.
  
 The following legend is applicable only to US Government
 contracts under FAR:
  
                    RESTRICTED RIGHTS LEGEND
  
 Use, reproduction and disclosure by the US Government is
 subject to restrictions as set forth in subparagraphs (a)
 and (c) of the Commercial Computer Software - Restricted
 Rights clause in FAR 52.227-19.
  
 Gaussian, Inc.
 340 Quinnipiac St., Bldg. 40, Wallingford CT 06492
  
  
 ---------------------------------------------------------------
 Warning -- This program may not be used in any manner that
 competes with the business of Gaussian, Inc. or will provide
 assistance to any competitor of Gaussian, Inc.  The licensee
 of this program is prohibited from giving any competitor of
 Gaussian, Inc. access to this program.  By using this program,
 the user acknowledges that Gaussian, Inc. is engaged in the
 business of creating and licensing software in the field of
 computational chemistry and represents and warrants to the
 licensee that it is not a competitor of Gaussian, Inc. and that
 it will not use this program in any manner prohibited above.
 ---------------------------------------------------------------
  

 Cite this work as:
 Gaussian 16, Revision C.01,
 M. J. Frisch, G. W. Trucks, H. B. Schlegel, G. E. Scuseria, 
 M. A. Robb, J. R. Cheeseman, G. Scalmani, V. Barone, 
 G. A. Petersson, H. Nakatsuji, X. Li, M. Caricato, A. V. Marenich, 
 J. Bloino, B. G. Janesko, R. Gomperts, B. Mennucci, H. P. Hratchian, 
 J. V. Ortiz, A. F. Izmaylov, J. L. Sonnenberg, D. Williams-Young, 
 F. Ding, F. Lipparini, F. Egidi, J. Goings, B. Peng, A. Petrone, 
 T. Henderson, D. Ranasinghe, V. G. Zakrzewski, J. Gao, N. Rega, 
 G. Zheng, W. Liang, M. Hada, M. Ehara, K. Toyota, R. Fukuda, 
 J. Hasegawa, M. Ishida, T. Nakajima, Y. Honda, O. Kitao, H. Nakai, 
 T. Vreven, K. Throssell, J. A. Montgomery, Jr., J. E. Peralta, 
 F. Ogliaro, M. J. Bearpark, J. J. Heyd, E. N. Brothers, K. N. Kudin, 
 V. N. Staroverov, T. A. Keith, R. Kobayashi, J. Normand, 
 K. Raghavachari, A. P. Rendell, J. C. Burant, S. S. Iyengar, 
 J. Tomasi, M. Cossi, J. M. Millam, M. Klene, C. Adamo, R. Cammi, 
 J. W. Ochterski, R. L. Martin, K. Morokuma, O. Farkas, 
 J. B. Foresman, and D. J. Fox, Gaussian, Inc., Wallingford CT, 2019.
 
 ******************************************
 Gaussian 16:  ES64L-G16RevC.01  3-Jul-2019
                31-Jan-2024 
 ******************************************
 --------------------------------------
 #N CCSD/cc-pVTZ FREQ Geom=Connectivity
 --------------------------------------
 1/10=4,30=1,38=11,57=2/1,6,3;
 2/12=2,17=6,18=5,40=1/2;
 3/5=16,6=1,11=9,25=1,30=1,71=1/1,2,3;
 4/69=2/1;
 5/5=2,38=5,98=1/2;
 8/6=4,9=120000,10=1/1,4;
 9/5=7,15=1/13;
 11/28=-8,29=200,42=3/11;
 10/5=6/2;
 6/7=2,8=2,9=2,10=2,22=-1/1;
 7/12=7/1,2,3,16;
 1/38=10/6(3);
 7/8=1,25=1,44=-1/16;
 1/10=4,30=1,38=10/3;
 99//99;
 3/5=16,6=1,11=9,25=1,30=1,71=1/1,2,3;
 4/5=5,16=3,69=2/1;
 5/5=2,38=5,98=1/2;
 8/6=4,9=120000,10=1/1,4;
 9/5=7,15=1/13;
 11/28=-8,29=200,42=3/11;
 10/5=6/2;
 6/7=2,8=2,9=2,10=2,22=-1/1;
 7/7=1,12=7/1,2,3,16;
 1/38=10/6(-9);
 7/8=1,25=1,44=-1/16;
 1/10=4,30=1,38=10/3;
 99//99;
 -----
 HNFCl
 -----
 Symbolic Z-matrix:
 Charge =  0 Multiplicity = 1
 N
 Cl                   1    B1
 H                    1    B2       2    A1
 F                    1    B3       2    A2       3    D1       0
       Variables:
  B1                    1.74806                  
  B2                    1.01956                  
  B3                    1.39893                  
  A1                  101.69894                  
  A2                  106.14062                  
  D1                  104.8343                   
 
 Numerical evaluation of force-constants.
 Nuclear step= 0.001000 Angstroms, electric field step= 0.000333 atomic units, NStep=1.

 GradGradGradGradGradGradGradGradGradGradGradGradGradGradGradGradGradGrad
 Berny optimization.
 Initialization pass.
                       ----------------------------
                       !    Initial Parameters    !
                       ! (Angstroms and Degrees)  !
 ----------------------                            ----------------------
 !      Name          Value   Derivative information (Atomic Units)     !
 ------------------------------------------------------------------------
 !       B1          1.7481   calculate D2E/DX2 analytically            !
 !       B2          1.0196   calculate D2E/DX2 analytically            !
 !       B3          1.3989   calculate D2E/DX2 analytically            !
 !       A1        101.6989   calculate D2E/DX2 analytically            !
 !       A2        106.1406   calculate D2E/DX2 analytically            !
 !       D1        104.8343   calculate D2E/DX2 analytically            !
 ------------------------------------------------------------------------
 Trust Radius=3.00D-01 FncErr=1.00D-07 GrdErr=1.00D-07 EigMax=2.50D+02 EigMin=1.00D-04
 Number of steps in this run=      2 maximum allowed number of steps=      2.
 GradGradGradGradGradGradGradGradGradGradGradGradGradGradGradGradGradGrad

                          Input orientation:                          
 ---------------------------------------------------------------------
 Center     Atomic      Atomic             Coordinates (Angstroms)
 Number     Number       Type             X           Y           Z
 ---------------------------------------------------------------------
      1          7           0        0.000000    0.000000    0.000000
      2         17           0        0.000000    0.000000    1.748059
      3          1           0        0.998377    0.000000   -0.206735
      4          9           0       -0.344044   -1.299003   -0.388898
 ---------------------------------------------------------------------
                    Distance matrix (angstroms):
                    1          2          3          4
     1  N    0.000000
     2  Cl   1.748059   0.000000
     3  H    1.019556   2.194988   0.000000
     4  F    1.398934   2.524353   1.876882   0.000000
 Stoichiometry    ClFHN
 Framework group  C1[X(ClFHN)]
 Deg. of freedom     6
 Full point group                 C1      NOp   1
 Largest Abelian subgroup         C1      NOp   1
 Largest concise Abelian subgroup C1      NOp   1
                         Standard orientation:                         
 ---------------------------------------------------------------------
 Center     Atomic      Atomic             Coordinates (Angstroms)
 Number     Number       Type             X           Y           Z
 ---------------------------------------------------------------------
      1          7           0        0.533541    0.629911   -0.160694
      2         17           0       -1.036339   -0.119713    0.010331
      3          1           0        0.621240    1.130047    0.723427
      4          9           0        1.473527   -0.389367    0.025090
 ---------------------------------------------------------------------
 Rotational constants (GHZ):          45.6768746           6.0148432           5.4081849
 Standard basis: CC-pVTZ (5D, 7F)
 There are   124 symmetry adapted cartesian basis functions of A   symmetry.
 There are   108 symmetry adapted basis functions of A   symmetry.
   108 basis functions,   215 primitive gaussians,   124 cartesian basis functions
    17 alpha electrons       17 beta electrons
       nuclear repulsion energy       102.1974686356 Hartrees.
 NAtoms=    4 NActive=    4 NUniq=    4 SFac= 1.00D+00 NAtFMM=   60 NAOKFM=F Big=F
 Integral buffers will be    131072 words long.
 Raffenetti 1 integral format.
 Two-electron integral symmetry is turned on.
 One-electron integrals computed using PRISM.
 NBasis=   108 RedAO= T EigKep=  2.02D-03  NBF=   108
 NBsUse=   108 1.00D-06 EigRej= -1.00D+00 NBFU=   108
 ExpMin= 1.03D-01 ExpMax= 4.56D+05 ExpMxC= 1.44D+03 IAcc=3 IRadAn=         5 AccDes= 0.00D+00
 Harris functional with IExCor=  205 and IRadAn=       5 diagonalized for initial guess.
 HarFok:  IExCor=  205 AccDes= 0.00D+00 IRadAn=         5 IDoV= 1 UseB2=F ITyADJ=14
 ICtDFT=  3500011 ScaDFX=  1.000000  1.000000  1.000000  1.000000
 FoFCou: FMM=F IPFlag=           0 FMFlag=      100000 FMFlg1=           0
         NFxFlg=           0 DoJE=T BraDBF=F KetDBF=T FulRan=T
         wScrn=  0.000000 ICntrl=       500 IOpCl=  0 I1Cent=   200000004 NGrid=           0
         NMat0=    1 NMatS0=      1 NMatT0=    0 NMatD0=    1 NMtDS0=    0 NMtDT0=    0
 Petite list used in FoFCou.
 Keep R1 ints in memory in canonical form, NReq=19346284.
 Requested convergence on RMS density matrix=1.00D-08 within 128 cycles.
 Requested convergence on MAX density matrix=1.00D-06.
 Requested convergence on             energy=1.00D-06.
 No special actions if energy rises.
 SCF Done:  E(RHF) =  -613.917290949     A.U. after   13 cycles
            NFock= 13  Conv=0.67D-08     -V/T= 2.0003
 ExpMin= 1.03D-01 ExpMax= 4.56D+05 ExpMxC= 1.44D+03 IAcc=3 IRadAn=         5 AccDes= 0.00D+00
 HarFok:  IExCor=  205 AccDes= 0.00D+00 IRadAn=         5 IDoV=-2 UseB2=F ITyADJ=14
 ICtDFT= 12500011 ScaDFX=  1.000000  1.000000  1.000000  1.000000
 Range of M.O.s used for correlation:     8   108
 NBasis=   108 NAE=    17 NBE=    17 NFC=     7 NFV=     0
 NROrb=    101 NOA=    10 NOB=    10 NVA=    91 NVB=    91
 Semi-Direct transformation.
 ModeAB=           2 MOrb=            10 LenV=     104382943
 LASXX=      4780810 LTotXX=     4780810 LenRXX=     4780810
 LTotAB=     4920665 MaxLAS=     7827500 LenRXY=     7827500
 NonZer=     9561620 LenScr=    15093760 LnRSAI=           0
 LnScr1=           0 LExtra=           0 Total=     27702070
 MaxDsk=          -1 SrtSym=           F ITran=            4
 JobTyp=0 Pass  1:  I=   1 to  10.
 (rs|ai) integrals will be sorted in core.
 SymMOI:  orbitals are not symmetric.
 Spin components of T(2) and E(2):
     alpha-alpha T2 =       0.2305371086D-01 E2=     -0.8263789418D-01
     alpha-beta  T2 =       0.1311912476D+00 E2=     -0.4901634450D+00
     beta-beta   T2 =       0.2305371086D-01 E2=     -0.8263789418D-01
 ANorm=    0.1085033948D+01
 E2 =    -0.6554392333D+00 EUMP2 =    -0.61457273018237D+03
 Keep R2 and R3 ints in memory in canonical form, NReq=36677039.
 CIDS: In Core Option IDoMem=           1.
 Iterations=  50 Convergence= 0.100D-07
 Produce multiple copies of IABC intergrals
 Iteration Nr.   1
 **********************
 DD1Dir will call FoFMem   1 times, MxPair=       110
 NAB=    55 NAA=     0 NBB=     0.
 MP4(R+Q)=  0.15252850D-01
 E3=       -0.17240631D-01        EUMP3=      -0.61458997081D+03
 E4(DQ)=    0.41754131D-03        UMP4(DQ)=   -0.61458955327D+03
 E4(SDQ)=  -0.61301897D-02        UMP4(SDQ)=  -0.61459610100D+03
 DE(Corr)= -0.65712840     E(Corr)=     -614.57441935    
 NORM(A)=   0.10883288D+01
 Iteration Nr.   2
 **********************
 DD1Dir will call FoFMem   1 times, MxPair=       110
 NAB=    55 NAA=     0 NBB=     0.
 DE(Corr)= -0.67471621     E(CORR)=     -614.59200716     Delta=-1.76D-02
 NORM(A)=   0.10950813D+01
 Iteration Nr.   3
 **********************
 DD1Dir will call FoFMem   1 times, MxPair=       110
 NAB=    55 NAA=     0 NBB=     0.
 DE(Corr)= -0.67490947     E(CORR)=     -614.59220042     Delta=-1.93D-04
 NORM(A)=   0.10967219D+01
 Iteration Nr.   4
 **********************
 DD1Dir will call FoFMem   1 times, MxPair=       110
 NAB=    55 NAA=     0 NBB=     0.
 DE(Corr)= -0.67637790     E(CORR)=     -614.59366885     Delta=-1.47D-03
 NORM(A)=   0.10972369D+01
 Iteration Nr.   5
 **********************
 DD1Dir will call FoFMem   1 times, MxPair=       110
 NAB=    55 NAA=     0 NBB=     0.
 DE(Corr)= -0.67654836     E(CORR)=     -614.59383930     Delta=-1.70D-04
 NORM(A)=   0.10974770D+01
 Iteration Nr.   6
 **********************
 DD1Dir will call FoFMem   1 times, MxPair=       110
 NAB=    55 NAA=     0 NBB=     0.
 DE(Corr)= -0.67657827     E(CORR)=     -614.59386922     Delta=-2.99D-05
 NORM(A)=   0.10975344D+01
 Iteration Nr.   7
 **********************
 DD1Dir will call FoFMem   1 times, MxPair=       110
 NAB=    55 NAA=     0 NBB=     0.
 DE(Corr)= -0.67658469     E(CORR)=     -614.59387564     Delta=-6.42D-06
 NORM(A)=   0.10975480D+01
 Iteration Nr.   8
 **********************
 DD1Dir will call FoFMem   1 times, MxPair=       110
 NAB=    55 NAA=     0 NBB=     0.
 DE(Corr)= -0.67658147     E(CORR)=     -614.59387242     Delta= 3.22D-06
 NORM(A)=   0.10975575D+01
 Iteration Nr.   9
 **********************
 DD1Dir will call FoFMem   1 times, MxPair=       110
 NAB=    55 NAA=     0 NBB=     0.
 DE(Corr)= -0.67658281     E(CORR)=     -614.59387376     Delta=-1.34D-06
 NORM(A)=   0.10975587D+01
 Iteration Nr.  10
 **********************
 DD1Dir will call FoFMem   1 times, MxPair=       110
 NAB=    55 NAA=     0 NBB=     0.
 DE(Corr)= -0.67658313     E(CORR)=     -614.59387408     Delta=-3.22D-07
 NORM(A)=   0.10975605D+01
 Iteration Nr.  11
 **********************
 DD1Dir will call FoFMem   1 times, MxPair=       110
 NAB=    55 NAA=     0 NBB=     0.
 DE(Corr)= -0.67658457     E(CORR)=     -614.59387552     Delta=-1.44D-06
 NORM(A)=   0.10975613D+01
 Iteration Nr.  12
 **********************
 DD1Dir will call FoFMem   1 times, MxPair=       110
 NAB=    55 NAA=     0 NBB=     0.
 DE(Corr)= -0.67658462     E(CORR)=     -614.59387557     Delta=-5.20D-08
 NORM(A)=   0.10975617D+01
 Iteration Nr.  13
 **********************
 DD1Dir will call FoFMem   1 times, MxPair=       110
 NAB=    55 NAA=     0 NBB=     0.
 DE(Corr)= -0.67658491     E(CORR)=     -614.59387586     Delta=-2.87D-07
 NORM(A)=   0.10975620D+01
 Iteration Nr.  14
 **********************
 DD1Dir will call FoFMem   1 times, MxPair=       110
 NAB=    55 NAA=     0 NBB=     0.
 DE(Corr)= -0.67658496     E(CORR)=     -614.59387591     Delta=-4.53D-08
 NORM(A)=   0.10975623D+01
 Iteration Nr.  15
 **********************
 DD1Dir will call FoFMem   1 times, MxPair=       110
 NAB=    55 NAA=     0 NBB=     0.
 DE(Corr)= -0.67658498     E(CORR)=     -614.59387593     Delta=-2.59D-08
 NORM(A)=   0.10975624D+01
 Iteration Nr.  16
 **********************
 DD1Dir will call FoFMem   1 times, MxPair=       110
 NAB=    55 NAA=     0 NBB=     0.
 DE(Corr)= -0.67658501     E(CORR)=     -614.59387596     Delta=-3.08D-08
 NORM(A)=   0.10975624D+01
 Iteration Nr.  17
 **********************
 DD1Dir will call FoFMem   1 times, MxPair=       110
 NAB=    55 NAA=     0 NBB=     0.
 DE(Corr)= -0.67658501     E(CORR)=     -614.59387596     Delta= 4.01D-09
 NORM(A)=   0.10975625D+01
 Wavefunction amplitudes converged. E(Corr)=     -614.59387596    
 Largest amplitude= 5.05D-02

 Z-amplitude iterations

 Iteration Nr.   1
 **********************
 DD1Dir will call FoFMem   1 times, MxPair=       110
 NAB=    55 NAA=     0 NBB=     0.
 DE(Z)= -0.65692765     E(Z)=     -614.57421860     Delta= 1.97D-02
 NORM(A)=   0.10975579D+01
 Iteration Nr.   2
 **********************
 DD1Dir will call FoFMem   1 times, MxPair=       110
 NAB=    55 NAA=     0 NBB=     0.
 DE(Z)= -0.65692630     E(Z)=     -614.57421725     Delta= 1.35D-06
 NORM(A)=   0.10975670D+01
 Iteration Nr.   3
 **********************
 DD1Dir will call FoFMem   1 times, MxPair=       110
 NAB=    55 NAA=     0 NBB=     0.
 DE(Z)= -0.65692864     E(Z)=     -614.57421959     Delta=-2.34D-06
 NORM(A)=   0.10975511D+01
 Iteration Nr.   4
 **********************
 DD1Dir will call FoFMem   1 times, MxPair=       110
 NAB=    55 NAA=     0 NBB=     0.
 DE(Z)= -0.65692498     E(Z)=     -614.57421593     Delta= 3.66D-06
 NORM(A)=   0.10975835D+01
 Iteration Nr.   5
 **********************
 DD1Dir will call FoFMem   1 times, MxPair=       110
 NAB=    55 NAA=     0 NBB=     0.
 DE(Z)= -0.65693253     E(Z)=     -614.57422348     Delta=-7.55D-06
 NORM(A)=   0.10896850D+01
 Iteration Nr.   6
 **********************
 DD1Dir will call FoFMem   1 times, MxPair=       110
 NAB=    55 NAA=     0 NBB=     0.
 DE(Z)= -0.65499929     E(Z)=     -614.57229024     Delta= 1.93D-03
 NORM(A)=   0.10896784D+01
 Iteration Nr.   7
 **********************
 DD1Dir will call FoFMem   1 times, MxPair=       110
 NAB=    55 NAA=     0 NBB=     0.
 DE(Z)= -0.65499980     E(Z)=     -614.57229075     Delta=-5.10D-07
 NORM(A)=   0.10896772D+01
 Iteration Nr.   8
 **********************
 DD1Dir will call FoFMem   1 times, MxPair=       110
 NAB=    55 NAA=     0 NBB=     0.
 DE(Z)= -0.65499868     E(Z)=     -614.57228963     Delta= 1.11D-06
 NORM(A)=   0.10896756D+01
 Iteration Nr.   9
 **********************
 DD1Dir will call FoFMem   1 times, MxPair=       110
 NAB=    55 NAA=     0 NBB=     0.
 DE(Z)= -0.65500039     E(Z)=     -614.57229134     Delta=-1.70D-06
 NORM(A)=   0.10896751D+01
 Iteration Nr.  10
 **********************
 DD1Dir will call FoFMem   1 times, MxPair=       110
 NAB=    55 NAA=     0 NBB=     0.
 DE(Z)= -0.65499962     E(Z)=     -614.57229057     Delta= 7.69D-07
 NORM(A)=   0.10896748D+01
 Iteration Nr.  11
 **********************
 DD1Dir will call FoFMem   1 times, MxPair=       110
 NAB=    55 NAA=     0 NBB=     0.
 DE(Z)= -0.65499984     E(Z)=     -614.57229079     Delta=-2.18D-07
 NORM(A)=   0.10896748D+01
 Iteration Nr.  12
 **********************
 DD1Dir will call FoFMem   1 times, MxPair=       110
 NAB=    55 NAA=     0 NBB=     0.
 DE(Z)= -0.65499980     E(Z)=     -614.57229075     Delta= 3.97D-08
 NORM(A)=   0.10896747D+01
 Iteration Nr.  13
 **********************
 DD1Dir will call FoFMem   1 times, MxPair=       110
 NAB=    55 NAA=     0 NBB=     0.
 DE(Z)= -0.65499980     E(Z)=     -614.57229075     Delta=-2.79D-09
 NORM(A)=   0.10896746D+01
 Z-amplitudes converged.
 Discarding MO integrals.
          IDoAtm=1111
          Differentiating once with respect to electric field.
                with respect to dipole field.
          Differentiating once with respect to nuclear coordinates.
 Keep R1 ints in memory in canonical form, NReq=19347672.
          There are     1 degrees of freedom in the 1st order CPHF.  IDoFFX=0 NUNeed=     1.
 LinEq1:  Iter=  0 NonCon=     1 RMS=3.15D-03 Max=3.73D-02 NDo=     1
 AX will form     1 AO Fock derivatives at one time.
 LinEq1:  Iter=  1 NonCon=     1 RMS=1.18D-03 Max=1.45D-02 NDo=     1
 LinEq1:  Iter=  2 NonCon=     1 RMS=3.96D-04 Max=4.86D-03 NDo=     1
 LinEq1:  Iter=  3 NonCon=     1 RMS=1.63D-04 Max=2.78D-03 NDo=     1
 LinEq1:  Iter=  4 NonCon=     1 RMS=5.40D-05 Max=7.80D-04 NDo=     1
 LinEq1:  Iter=  5 NonCon=     1 RMS=2.00D-05 Max=2.50D-04 NDo=     1
 LinEq1:  Iter=  6 NonCon=     1 RMS=5.44D-06 Max=8.37D-05 NDo=     1
 LinEq1:  Iter=  7 NonCon=     1 RMS=1.46D-06 Max=1.53D-05 NDo=     1
 LinEq1:  Iter=  8 NonCon=     1 RMS=3.84D-07 Max=3.99D-06 NDo=     1
 LinEq1:  Iter=  9 NonCon=     1 RMS=7.23D-08 Max=9.54D-07 NDo=     1
 LinEq1:  Iter= 10 NonCon=     1 RMS=1.64D-08 Max=1.66D-07 NDo=     1
 LinEq1:  Iter= 11 NonCon=     1 RMS=3.28D-09 Max=3.60D-08 NDo=     1
 LinEq1:  Iter= 12 NonCon=     1 RMS=7.61D-10 Max=1.08D-08 NDo=     1
 LinEq1:  Iter= 13 NonCon=     1 RMS=2.01D-10 Max=2.21D-09 NDo=     1
 LinEq1:  Iter= 14 NonCon=     0 RMS=4.29D-11 Max=4.80D-10 NDo=     1
 Linear equations converged to 1.000D-10 1.000D-09 after    14 iterations.
 End of Minotr F.D. properties file   721 does not exist.
 End of Minotr F.D. properties file   722 does not exist.
 End of Minotr F.D. properties file   788 does not exist.

 **********************************************************************

            Population analysis using the CC Density.

 **********************************************************************

 Orbital symmetries:
       Occupied  (A) (A) (A) (A) (A) (A) (A) (A) (A) (A) (A) (A)
                 (A) (A) (A) (A) (A)
       Virtual   (A) (A) (A) (A) (A) (A) (A) (A) (A) (A) (A) (A)
                 (A) (A) (A) (A) (A) (A) (A) (A) (A) (A) (A) (A)
                 (A) (A) (A) (A) (A) (A) (A) (A) (A) (A) (A) (A)
                 (A) (A) (A) (A) (A) (A) (A) (A) (A) (A) (A) (A)
                 (A) (A) (A) (A) (A) (A) (A) (A) (A) (A) (A) (A)
                 (A) (A) (A) (A) (A) (A) (A) (A) (A) (A) (A) (A)
                 (A) (A) (A) (A) (A) (A) (A) (A) (A) (A) (A) (A)
                 (A) (A) (A) (A) (A) (A) (A)
 The electronic state is 1-A.
 Alpha  occ. eigenvalues -- -104.88108 -26.33448 -15.73636 -10.60379  -8.07069
 Alpha  occ. eigenvalues --   -8.06820  -8.06795  -1.64428  -1.23511  -1.02696
 Alpha  occ. eigenvalues --   -0.76894  -0.72071  -0.70313  -0.60413  -0.53677
 Alpha  occ. eigenvalues --   -0.48802  -0.44579
 Alpha virt. eigenvalues --    0.10504   0.16098   0.23278   0.45164   0.47960
 Alpha virt. eigenvalues --    0.48291   0.51749   0.54869   0.57869   0.59871
 Alpha virt. eigenvalues --    0.61993   0.62714   0.67618   0.69355   0.76063
 Alpha virt. eigenvalues --    0.83390   0.89516   0.99275   1.04092   1.07861
 Alpha virt. eigenvalues --    1.11160   1.24496   1.41509   1.46281   1.54315
 Alpha virt. eigenvalues --    1.60644   1.79908   1.84056   1.91279   2.16136
 Alpha virt. eigenvalues --    2.18809   2.22712   2.23491   2.24634   2.29476
 Alpha virt. eigenvalues --    2.32941   2.35193   2.38627   2.39288   2.40185
 Alpha virt. eigenvalues --    2.50797   2.54758   2.55352   2.57511   2.62379
 Alpha virt. eigenvalues --    2.66892   2.73840   2.82441   2.96168   3.01614
 Alpha virt. eigenvalues --    3.42436   3.46188   3.57407   3.74400   3.78349
 Alpha virt. eigenvalues --    3.92653   4.13070   4.14889   4.18941   4.26725
 Alpha virt. eigenvalues --    4.38328   4.53224   4.57747   4.62668   4.67621
 Alpha virt. eigenvalues --    5.03963   5.07545   5.10277   5.20430   5.35624
 Alpha virt. eigenvalues --    5.41891   5.70102   5.84178   5.88940   5.95648
 Alpha virt. eigenvalues --    6.10276   6.47415   7.37854   7.38396   7.43064
 Alpha virt. eigenvalues --    7.46283   7.73449   7.77145   8.01340   8.87559
 Alpha virt. eigenvalues --    8.89224   9.19599   9.25964   9.41642  10.63501
 Alpha virt. eigenvalues --   11.64136
          Condensed to atoms (all electrons):
               1          2          3          4
     1  N    6.414714   0.132432   0.310053   0.107976
     2  Cl   0.132432  16.947025  -0.027376  -0.040190
     3  H    0.310053  -0.027376   0.583754  -0.023089
     4  F    0.107976  -0.040190  -0.023089   9.134896
 Mulliken charges:
               1
     1  N    0.034826
     2  Cl  -0.011891
     3  H    0.156658
     4  F   -0.179593
 Sum of Mulliken charges =  -0.00000
 Mulliken charges with hydrogens summed into heavy atoms:
               1
     1  N    0.191484
     2  Cl  -0.011891
     4  F   -0.179593
 Electronic spatial extent (au):  <R**2>=            217.8197
 Charge=             -0.0000 electrons
 Dipole moment (field-independent basis, Debye):
    X=             -0.3324    Y=              1.0454    Z=              1.3169  Tot=              1.7139
 Quadrupole moment (field-independent basis, Debye-Ang):
   XX=            -23.7208   YY=            -22.3429   ZZ=            -23.3111
   XY=              1.4083   XZ=              0.9090   YZ=              1.8232
 Traceless Quadrupole moment (field-independent basis, Debye-Ang):
   XX=             -0.5959   YY=              0.7821   ZZ=             -0.1862
   XY=              1.4083   XZ=              0.9090   YZ=              1.8232
 Octapole moment (field-independent basis, Debye-Ang**2):
  XXX=              2.9842  YYY=             -0.6507  ZZZ=              1.7720  XYY=              3.0058
  XXY=             -1.3602  XXZ=              1.0306  XZZ=              3.3614  YZZ=             -0.0863
  YYZ=              2.4255  XYZ=              1.2777
 Hexadecapole moment (field-independent basis, Debye-Ang**3):
 XXXX=           -168.6495 YYYY=            -42.3159 ZZZZ=            -24.7751 XXXY=              1.1960
 XXXZ=              0.5530 YYYX=             -2.2864 YYYZ=              3.2452 ZZZX=              1.4307
 ZZZY=              2.1372 XXYY=            -35.1127 XXZZ=            -33.8573 YYZZ=            -10.9698
 XXYZ=              0.7847 YYXZ=              1.6401 ZZXY=             -0.6476
 N-N= 1.021974686356D+02 E-N=-1.666613395287D+03  KE= 6.145684332862D+02
 Calling FoFJK, ICntrl=  10002127 FMM=F ISym2X=0 I1Cent= 0 IOpClX= 0 NMat=1 NMatS=1 NMatT=0.
 ***** Axes restored to original set *****
 -------------------------------------------------------------------
 Center     Atomic                   Forces (Hartrees/Bohr)
 Number     Number              X              Y              Z
 -------------------------------------------------------------------
      1        7           0.000151496    0.000140214    0.000353899
      2       17          -0.000022278    0.000004106   -0.000283172
      3        1          -0.000086473    0.000004366   -0.000021419
      4        9          -0.000042745   -0.000148685   -0.000049309
 -------------------------------------------------------------------
 Cartesian Forces:  Max     0.000353899 RMS     0.000153535
 -----------------------------------------------------------------------------------------------
                       Internal Coordinate Forces (Hartree/Bohr or radian)
  Cent   Atom   N1       Length/X         N2         Alpha/Y        N3         Beta/Z          J
 -----------------------------------------------------------------------------------------------
      1  N 
      2  Cl       1  -0.000283(     1)
      3  H        1  -0.000080(     2)      2   0.000074(     4)
      4  F        1   0.000162(     3)      2   0.000012(     5)      3   0.000008(     6)     0
 -----------------------------------------------------------------------------------------------
 Internal  Forces:  Max     0.000283172 RMS     0.000140643
 NDeriv=     12 NFrqRd=  0 NDerD0=      0 MskFDP=       0 MskDFD=       0 MskDF0=       0
 At 1st pt F.D. properties file   721 does not exist.
 At 1st pt F.D. properties file   722 does not exist.
 D2Numr ... symmetry will be used.
 Standard basis: CC-pVTZ (5D, 7F)
   108 basis functions,   215 primitive gaussians,   124 cartesian basis functions
    17 alpha electrons       17 beta electrons
       nuclear repulsion energy       102.1907229735 Hartrees.
 NAtoms=    4 NActive=    4 NUniq=    4 SFac= 1.00D+00 NAtFMM=   60 NAOKFM=F Big=F
 Integral buffers will be    131072 words long.
 Raffenetti 1 integral format.
 Two-electron integral symmetry is turned off.
 One-electron integrals computed using PRISM.
 NBasis=   108 RedAO= T EigKep=  2.02D-03  NBF=   108
 NBsUse=   108 1.00D-06 EigRej= -1.00D+00 NBFU=   108
 Initial guess from the checkpoint file:  "/tmp/webmo-1487/59/Gau-2299.chk"
 B after Tr=     0.000389   -0.000000    0.000000
         Rot=    1.000000    0.000000    0.000014    0.000048 Ang=   0.01 deg.
 Keep R1 ints in memory in canonical form, NReq=19346014.
 Requested convergence on RMS density matrix=1.00D-08 within 128 cycles.
 Requested convergence on MAX density matrix=1.00D-06.
 Requested convergence on             energy=1.00D-06.
 No special actions if energy rises.
 SCF Done:  E(RHF) =  -613.917300137     A.U. after    8 cycles
            NFock=  8  Conv=0.41D-08     -V/T= 2.0003
 ExpMin= 1.03D-01 ExpMax= 4.56D+05 ExpMxC= 1.44D+03 IAcc=3 IRadAn=         5 AccDes= 0.00D+00
 HarFok:  IExCor=  205 AccDes= 0.00D+00 IRadAn=         5 IDoV=-2 UseB2=F ITyADJ=14
 ICtDFT= 12500011 ScaDFX=  1.000000  1.000000  1.000000  1.000000
 Range of M.O.s used for correlation:     8   108
 NBasis=   108 NAE=    17 NBE=    17 NFC=     7 NFV=     0
 NROrb=    101 NOA=    10 NOB=    10 NVA=    91 NVB=    91
 Semi-Direct transformation.
 ModeAB=           2 MOrb=            10 LenV=     104382943
 LASXX=      4780810 LTotXX=     4780810 LenRXX=     4780810
 LTotAB=     4920665 MaxLAS=     7827500 LenRXY=     7827500
 NonZer=     9561620 LenScr=    15093760 LnRSAI=           0
 LnScr1=           0 LExtra=           0 Total=     27702070
 MaxDsk=          -1 SrtSym=           F ITran=            4
 JobTyp=0 Pass  1:  I=   1 to  10.
 (rs|ai) integrals will be sorted in core.
 Spin components of T(2) and E(2):
     alpha-alpha T2 =       0.2305280741D-01 E2=     -0.8263494686D-01
     alpha-beta  T2 =       0.1311917000D+00 E2=     -0.4901518287D+00
     beta-beta   T2 =       0.2305280741D-01 E2=     -0.8263494686D-01
 ANorm=    0.1085033324D+01
 E2 =    -0.6554217224D+00 EUMP2 =    -0.61457272185958D+03
 Keep R2 and R3 ints in memory in canonical form, NReq=36676769.
 CIDS: In Core Option IDoMem=           1.
 Iterations=  50 Convergence= 0.100D-07
 Produce multiple copies of IABC intergrals
 Iteration Nr.   1
 **********************
 DD1Dir will call FoFMem   1 times, MxPair=       110
 NAB=    55 NAA=     0 NBB=     0.
 MP4(R+Q)=  0.15254011D-01
 E3=       -0.17253228D-01        EUMP3=      -0.61458997509D+03
 E4(DQ)=    0.42153882D-03        UMP4(DQ)=   -0.61458955355D+03
 E4(SDQ)=  -0.61233222D-02        UMP4(SDQ)=  -0.61459609841D+03
 DE(Corr)= -0.65712259     E(Corr)=     -614.57442273    
 NORM(A)=   0.10883315D+01
 Iteration Nr.   2
 **********************
 DD1Dir will call FoFMem   1 times, MxPair=       110
 NAB=    55 NAA=     0 NBB=     0.
 DE(Corr)= -0.67470503     E(CORR)=     -614.59200516     Delta=-1.76D-02
 NORM(A)=   0.10950832D+01
 Iteration Nr.   3
 **********************
 DD1Dir will call FoFMem   1 times, MxPair=       110
 NAB=    55 NAA=     0 NBB=     0.
 DE(Corr)= -0.67489963     E(CORR)=     -614.59219977     Delta=-1.95D-04
 NORM(A)=   0.10967233D+01
 Iteration Nr.   4
 **********************
 DD1Dir will call FoFMem   1 times, MxPair=       110
 NAB=    55 NAA=     0 NBB=     0.
 DE(Corr)= -0.67636752     E(CORR)=     -614.59366766     Delta=-1.47D-03
 NORM(A)=   0.10972382D+01
 Iteration Nr.   5
 **********************
 DD1Dir will call FoFMem   1 times, MxPair=       110
 NAB=    55 NAA=     0 NBB=     0.
 DE(Corr)= -0.67653793     E(CORR)=     -614.59383807     Delta=-1.70D-04
 NORM(A)=   0.10974784D+01
 Iteration Nr.   6
 **********************
 DD1Dir will call FoFMem   1 times, MxPair=       110
 NAB=    55 NAA=     0 NBB=     0.
 DE(Corr)= -0.67656784     E(CORR)=     -614.59386798     Delta=-2.99D-05
 NORM(A)=   0.10975358D+01
 Iteration Nr.   7
 **********************
 DD1Dir will call FoFMem   1 times, MxPair=       110
 NAB=    55 NAA=     0 NBB=     0.
 DE(Corr)= -0.67657427     E(CORR)=     -614.59387441     Delta=-6.43D-06
 NORM(A)=   0.10975494D+01
 Iteration Nr.   8
 **********************
 DD1Dir will call FoFMem   1 times, MxPair=       110
 NAB=    55 NAA=     0 NBB=     0.
 DE(Corr)= -0.67657104     E(CORR)=     -614.59387118     Delta= 3.23D-06
 NORM(A)=   0.10975589D+01
 Iteration Nr.   9
 **********************
 DD1Dir will call FoFMem   1 times, MxPair=       110
 NAB=    55 NAA=     0 NBB=     0.
 DE(Corr)= -0.67657238     E(CORR)=     -614.59387252     Delta=-1.34D-06
 NORM(A)=   0.10975601D+01
 Iteration Nr.  10
 **********************
 DD1Dir will call FoFMem   1 times, MxPair=       110
 NAB=    55 NAA=     0 NBB=     0.
 DE(Corr)= -0.67657270     E(CORR)=     -614.59387284     Delta=-3.19D-07
 NORM(A)=   0.10975619D+01
 Iteration Nr.  11
 **********************
 DD1Dir will call FoFMem   1 times, MxPair=       110
 NAB=    55 NAA=     0 NBB=     0.
 DE(Corr)= -0.67657414     E(CORR)=     -614.59387428     Delta=-1.44D-06
 NORM(A)=   0.10975627D+01
 Iteration Nr.  12
 **********************
 DD1Dir will call FoFMem   1 times, MxPair=       110
 NAB=    55 NAA=     0 NBB=     0.
 DE(Corr)= -0.67657420     E(CORR)=     -614.59387433     Delta=-5.19D-08
 NORM(A)=   0.10975632D+01
 Iteration Nr.  13
 **********************
 DD1Dir will call FoFMem   1 times, MxPair=       110
 NAB=    55 NAA=     0 NBB=     0.
 DE(Corr)= -0.67657448     E(CORR)=     -614.59387462     Delta=-2.87D-07
 NORM(A)=   0.10975635D+01
 Iteration Nr.  14
 **********************
 DD1Dir will call FoFMem   1 times, MxPair=       110
 NAB=    55 NAA=     0 NBB=     0.
 DE(Corr)= -0.67657453     E(CORR)=     -614.59387467     Delta=-4.52D-08
 NORM(A)=   0.10975637D+01
 Iteration Nr.  15
 **********************
 DD1Dir will call FoFMem   1 times, MxPair=       110
 NAB=    55 NAA=     0 NBB=     0.
 DE(Corr)= -0.67657455     E(CORR)=     -614.59387469     Delta=-2.61D-08
 NORM(A)=   0.10975638D+01
 Iteration Nr.  16
 **********************
 DD1Dir will call FoFMem   1 times, MxPair=       110
 NAB=    55 NAA=     0 NBB=     0.
 DE(Corr)= -0.67657458     E(CORR)=     -614.59387472     Delta=-3.06D-08
 NORM(A)=   0.10975639D+01
 Iteration Nr.  17
 **********************
 DD1Dir will call FoFMem   1 times, MxPair=       110
 NAB=    55 NAA=     0 NBB=     0.
 DE(Corr)= -0.67657458     E(CORR)=     -614.59387472     Delta= 3.79D-09
 NORM(A)=   0.10975639D+01
 Wavefunction amplitudes converged. E(Corr)=     -614.59387472    
 Largest amplitude= 5.03D-02

 Z-amplitude iterations

 Iteration Nr.   1
 **********************
 DD1Dir will call FoFMem   1 times, MxPair=       110
 NAB=    55 NAA=     0 NBB=     0.
 DE(Z)= -0.65691626     E(Z)=     -614.57421640     Delta= 1.97D-02
 NORM(A)=   0.10975595D+01
 Iteration Nr.   2
 **********************
 DD1Dir will call FoFMem   1 times, MxPair=       110
 NAB=    55 NAA=     0 NBB=     0.
 DE(Z)= -0.65691496     E(Z)=     -614.57421510     Delta= 1.30D-06
 NORM(A)=   0.10975694D+01
 Iteration Nr.   3
 **********************
 DD1Dir will call FoFMem   1 times, MxPair=       110
 NAB=    55 NAA=     0 NBB=     0.
 DE(Z)= -0.65691748     E(Z)=     -614.57421761     Delta=-2.52D-06
 NORM(A)=   0.10975553D+01
 Iteration Nr.   4
 **********************
 DD1Dir will call FoFMem   1 times, MxPair=       110
 NAB=    55 NAA=     0 NBB=     0.
 DE(Z)= -0.65691425     E(Z)=     -614.57421439     Delta= 3.23D-06
 NORM(A)=   0.10975814D+01
 Iteration Nr.   5
 **********************
 DD1Dir will call FoFMem   1 times, MxPair=       110
 NAB=    55 NAA=     0 NBB=     0.
 DE(Z)= -0.65692031     E(Z)=     -614.57422045     Delta=-6.06D-06
 NORM(A)=   0.10896860D+01
 Iteration Nr.   6
 **********************
 DD1Dir will call FoFMem   1 times, MxPair=       110
 NAB=    55 NAA=     0 NBB=     0.
 DE(Z)= -0.65498755     E(Z)=     -614.57228769     Delta= 1.93D-03
 NORM(A)=   0.10896800D+01
 Iteration Nr.   7
 **********************
 DD1Dir will call FoFMem   1 times, MxPair=       110
 NAB=    55 NAA=     0 NBB=     0.
 DE(Z)= -0.65498977     E(Z)=     -614.57228991     Delta=-2.22D-06
 NORM(A)=   0.10896775D+01
 Iteration Nr.   8
 **********************
 DD1Dir will call FoFMem   1 times, MxPair=       110
 NAB=    55 NAA=     0 NBB=     0.
 DE(Z)= -0.65498776     E(Z)=     -614.57228789     Delta= 2.01D-06
 NORM(A)=   0.10896762D+01
 Iteration Nr.   9
 **********************
 DD1Dir will call FoFMem   1 times, MxPair=       110
 NAB=    55 NAA=     0 NBB=     0.
 DE(Z)= -0.65498985     E(Z)=     -614.57228998     Delta=-2.09D-06
 NORM(A)=   0.10896758D+01
 Iteration Nr.  10
 **********************
 DD1Dir will call FoFMem   1 times, MxPair=       110
 NAB=    55 NAA=     0 NBB=     0.
 DE(Z)= -0.65498903     E(Z)=     -614.57228916     Delta= 8.18D-07
 NORM(A)=   0.10896755D+01
 Iteration Nr.  11
 **********************
 DD1Dir will call FoFMem   1 times, MxPair=       110
 NAB=    55 NAA=     0 NBB=     0.
 DE(Z)= -0.65498927     E(Z)=     -614.57228941     Delta=-2.48D-07
 NORM(A)=   0.10896754D+01
 Iteration Nr.  12
 **********************
 DD1Dir will call FoFMem   1 times, MxPair=       110
 NAB=    55 NAA=     0 NBB=     0.
 DE(Z)= -0.65498923     E(Z)=     -614.57228937     Delta= 4.53D-08
 NORM(A)=   0.10896753D+01
 Iteration Nr.  13
 **********************
 DD1Dir will call FoFMem   1 times, MxPair=       110
 NAB=    55 NAA=     0 NBB=     0.
 DE(Z)= -0.65498920     E(Z)=     -614.57228934     Delta= 2.50D-08
 NORM(A)=   0.10896753D+01
 Iteration Nr.  14
 **********************
 DD1Dir will call FoFMem   1 times, MxPair=       110
 NAB=    55 NAA=     0 NBB=     0.
 DE(Z)= -0.65498922     E(Z)=     -614.57228936     Delta=-1.44D-08
 NORM(A)=   0.10896753D+01
 Iteration Nr.  15
 **********************
 DD1Dir will call FoFMem   1 times, MxPair=       110
 NAB=    55 NAA=     0 NBB=     0.
 DE(Z)= -0.65498920     E(Z)=     -614.57228934     Delta= 1.50D-08
 NORM(A)=   0.10896753D+01
 Iteration Nr.  16
 **********************
 DD1Dir will call FoFMem   1 times, MxPair=       110
 NAB=    55 NAA=     0 NBB=     0.
 DE(Z)= -0.65498921     E(Z)=     -614.57228935     Delta=-7.48D-09
 NORM(A)=   0.10896753D+01
 Z-amplitudes converged.
 Discarding MO integrals.
          IDoAtm=1111
          Differentiating once with respect to electric field.
                with respect to dipole field.
          Differentiating once with respect to nuclear coordinates.
 Keep R1 ints in memory in canonical form, NReq=19347374.
          There are     1 degrees of freedom in the 1st order CPHF.  IDoFFX=0 NUNeed=     1.
 LinEq1:  Iter=  0 NonCon=     1 RMS=3.15D-03 Max=3.72D-02 NDo=     1
 AX will form     1 AO Fock derivatives at one time.
 LinEq1:  Iter=  1 NonCon=     1 RMS=1.17D-03 Max=1.45D-02 NDo=     1
 LinEq1:  Iter=  2 NonCon=     1 RMS=3.96D-04 Max=4.85D-03 NDo=     1
 LinEq1:  Iter=  3 NonCon=     1 RMS=1.63D-04 Max=2.79D-03 NDo=     1
 LinEq1:  Iter=  4 NonCon=     1 RMS=5.39D-05 Max=7.81D-04 NDo=     1
 LinEq1:  Iter=  5 NonCon=     1 RMS=2.00D-05 Max=2.49D-04 NDo=     1
 LinEq1:  Iter=  6 NonCon=     1 RMS=5.43D-06 Max=8.37D-05 NDo=     1
 LinEq1:  Iter=  7 NonCon=     1 RMS=1.46D-06 Max=1.53D-05 NDo=     1
 LinEq1:  Iter=  8 NonCon=     1 RMS=3.85D-07 Max=3.99D-06 NDo=     1
 LinEq1:  Iter=  9 NonCon=     1 RMS=7.25D-08 Max=9.53D-07 NDo=     1
 LinEq1:  Iter= 10 NonCon=     1 RMS=1.65D-08 Max=1.66D-07 NDo=     1
 LinEq1:  Iter= 11 NonCon=     1 RMS=3.31D-09 Max=3.63D-08 NDo=     1
 LinEq1:  Iter= 12 NonCon=     1 RMS=7.68D-10 Max=1.09D-08 NDo=     1
 LinEq1:  Iter= 13 NonCon=     1 RMS=2.01D-10 Max=2.19D-09 NDo=     1
 LinEq1:  Iter= 14 NonCon=     0 RMS=4.30D-11 Max=4.81D-10 NDo=     1
 Linear equations converged to 1.000D-10 1.000D-09 after    14 iterations.
 End of Minotr F.D. properties file   721 does not exist.
 End of Minotr F.D. properties file   722 does not exist.
 End of Minotr F.D. properties file   788 does not exist.

 **********************************************************************

            Population analysis using the CC Density.

 **********************************************************************

 Alpha  occ. eigenvalues -- -104.88099 -26.33465 -15.73641 -10.60369  -8.07059
 Alpha  occ. eigenvalues --   -8.06810  -8.06785  -1.64468  -1.23480  -1.02704
 Alpha  occ. eigenvalues --   -0.76919  -0.72092  -0.70334  -0.60397  -0.53658
 Alpha  occ. eigenvalues --   -0.48796  -0.44582
 Alpha virt. eigenvalues --    0.10491   0.16089   0.23314   0.45162   0.47970
 Alpha virt. eigenvalues --    0.48298   0.51755   0.54883   0.57864   0.59876
 Alpha virt. eigenvalues --    0.62002   0.62712   0.67616   0.69348   0.76048
 Alpha virt. eigenvalues --    0.83381   0.89494   0.99245   1.04093   1.07847
 Alpha virt. eigenvalues --    1.11147   1.24498   1.41512   1.46258   1.54346
 Alpha virt. eigenvalues --    1.60596   1.79918   1.84080   1.91292   2.16128
 Alpha virt. eigenvalues --    2.18813   2.22726   2.23499   2.24640   2.29478
 Alpha virt. eigenvalues --    2.32938   2.35211   2.38634   2.39295   2.40183
 Alpha virt. eigenvalues --    2.50794   2.54764   2.55354   2.57515   2.62391
 Alpha virt. eigenvalues --    2.66843   2.73862   2.82420   2.96170   3.01566
 Alpha virt. eigenvalues --    3.42448   3.46161   3.57388   3.74433   3.78301
 Alpha virt. eigenvalues --    3.92634   4.13057   4.14902   4.18937   4.26734
 Alpha virt. eigenvalues --    4.38350   4.53245   4.57761   4.62617   4.67599
 Alpha virt. eigenvalues --    5.03937   5.07537   5.10249   5.20402   5.35634
 Alpha virt. eigenvalues --    5.41902   5.70075   5.84179   5.88956   5.95585
 Alpha virt. eigenvalues --    6.10253   6.47534   7.37834   7.38377   7.43072
 Alpha virt. eigenvalues --    7.46305   7.73536   7.77239   8.01427   8.87551
 Alpha virt. eigenvalues --    8.89216   9.19644   9.26018   9.41661  10.63770
 Alpha virt. eigenvalues --   11.64405
          Condensed to atoms (all electrons):
               1          2          3          4
     1  N    6.414658   0.132467   0.309962   0.107979
     2  Cl   0.132467  16.947428  -0.027342  -0.040226
     3  H    0.309962  -0.027342   0.583864  -0.023113
     4  F    0.107979  -0.040226  -0.023113   9.134597
 Mulliken charges:
               1
     1  N    0.034934
     2  Cl  -0.012327
     3  H    0.156628
     4  F   -0.179236
 Sum of Mulliken charges =  -0.00000
 Mulliken charges with hydrogens summed into heavy atoms:
               1
     1  N    0.191563
     2  Cl  -0.012327
     4  F   -0.179236
 Electronic spatial extent (au):  <R**2>=            217.8464
 Charge=             -0.0000 electrons
 Dipole moment (field-independent basis, Debye):
    X=             -0.3283    Y=              1.0450    Z=              1.3169  Tot=              1.7129
 Quadrupole moment (field-independent basis, Debye-Ang):
   XX=            -23.7191   YY=            -22.3437   ZZ=            -23.3119
   XY=              1.4075   XZ=              0.9089   YZ=              1.8231
 Traceless Quadrupole moment (field-independent basis, Debye-Ang):
   XX=             -0.5942   YY=              0.7812   ZZ=             -0.1870
   XY=              1.4075   XZ=              0.9089   YZ=              1.8231
 Octapole moment (field-independent basis, Debye-Ang**2):
  XXX=              2.9805  YYY=             -0.6511  ZZZ=              1.7721  XYY=              3.0028
  XXY=             -1.3612  XXZ=              1.0308  XZZ=              3.3579  YZZ=             -0.0869
  YYZ=              2.4254  XYZ=              1.2781
 Hexadecapole moment (field-independent basis, Debye-Ang**3):
 XXXX=           -168.6778 YYYY=            -42.3171 ZZZZ=            -24.7774 XXXY=              1.1852
 XXXZ=              0.5550 YYYX=             -2.2992 YYYZ=              3.2450 ZZZX=              1.4333
 ZZZY=              2.1370 XXYY=            -35.1207 XXZZ=            -33.8629 YYZZ=            -10.9706
 XXYZ=              0.7850 YYXZ=              1.6411 ZZXY=             -0.6519
 N-N= 1.021907229735D+02 E-N=-1.666599569776D+03  KE= 6.145684795463D+02
 Calling FoFJK, ICntrl=  10002127 FMM=F ISym2X=0 I1Cent= 0 IOpClX= 0 NMat=1 NMatS=1 NMatT=0.
 -------------------------------------------------------------------
 Center     Atomic                   Forces (Hartrees/Bohr)
 Number     Number              X              Y              Z
 -------------------------------------------------------------------
      1        7          -0.000916132    0.000060149    0.000012260
      2       17           0.000466260    0.000237702   -0.000097861
      3        1           0.000103685   -0.000003051   -0.000001925
      4        9           0.000346186   -0.000294799    0.000087527
 -------------------------------------------------------------------
 Cartesian Forces:  Max     0.000916132 RMS     0.000335624
 NDeriv=     12 NFrqRd=  0 NDerD0=      0 MskFDP=       0 MskDFD=       0 MskDF0=       0
 Re-enter D2Numr:  atom      1 IXYZ=1 step-up   number 1
 Standard basis: CC-pVTZ (5D, 7F)
   108 basis functions,   215 primitive gaussians,   124 cartesian basis functions
    17 alpha electrons       17 beta electrons
       nuclear repulsion energy       102.2042319323 Hartrees.
 NAtoms=    4 NActive=    4 NUniq=    4 SFac= 1.00D+00 NAtFMM=   60 NAOKFM=F Big=F
 Integral buffers will be    131072 words long.
 Raffenetti 1 integral format.
 Two-electron integral symmetry is turned off.
 One-electron integrals computed using PRISM.
 NBasis=   108 RedAO= T EigKep=  2.02D-03  NBF=   108
 NBsUse=   108 1.00D-06 EigRej= -1.00D+00 NBFU=   108
 Initial guess from the checkpoint file:  "/tmp/webmo-1487/59/Gau-2299.chk"
 B after Tr=    -0.000389    0.000000   -0.000000
         Rot=    1.000000    0.000000   -0.000014   -0.000048 Ang=  -0.01 deg.
 Keep R1 ints in memory in canonical form, NReq=19346014.
 Requested convergence on RMS density matrix=1.00D-08 within 128 cycles.
 Requested convergence on MAX density matrix=1.00D-06.
 Requested convergence on             energy=1.00D-06.
 No special actions if energy rises.
 SCF Done:  E(RHF) =  -613.917280650     A.U. after    8 cycles
            NFock=  8  Conv=0.41D-08     -V/T= 2.0003
 ExpMin= 1.03D-01 ExpMax= 4.56D+05 ExpMxC= 1.44D+03 IAcc=3 IRadAn=         5 AccDes= 0.00D+00
 HarFok:  IExCor=  205 AccDes= 0.00D+00 IRadAn=         5 IDoV=-2 UseB2=F ITyADJ=14
 ICtDFT= 12500011 ScaDFX=  1.000000  1.000000  1.000000  1.000000
 Range of M.O.s used for correlation:     8   108
 NBasis=   108 NAE=    17 NBE=    17 NFC=     7 NFV=     0
 NROrb=    101 NOA=    10 NOB=    10 NVA=    91 NVB=    91
 Semi-Direct transformation.
 ModeAB=           2 MOrb=            10 LenV=     104382943
 LASXX=      4780810 LTotXX=     4780810 LenRXX=     4780810
 LTotAB=     4920665 MaxLAS=     7827500 LenRXY=     7827500
 NonZer=     9561620 LenScr=    15093760 LnRSAI=           0
 LnScr1=           0 LExtra=           0 Total=     27702070
 MaxDsk=          -1 SrtSym=           F ITran=            4
 JobTyp=0 Pass  1:  I=   1 to  10.
 (rs|ai) integrals will be sorted in core.
 Spin components of T(2) and E(2):
     alpha-alpha T2 =       0.2305463150D-01 E2=     -0.8264087307D-01
     alpha-beta  T2 =       0.1311909242D+00 E2=     -0.4901751571D+00
     beta-beta   T2 =       0.2305463150D-01 E2=     -0.8264087307D-01
 ANorm=    0.1085034648D+01
 E2 =    -0.6554569032D+00 EUMP2 =    -0.61457273755311D+03
 Keep R2 and R3 ints in memory in canonical form, NReq=36676769.
 CIDS: In Core Option IDoMem=           1.
 Iterations=  50 Convergence= 0.100D-07
 Produce multiple copies of IABC intergrals
 Iteration Nr.   1
 **********************
 DD1Dir will call FoFMem   1 times, MxPair=       110
 NAB=    55 NAA=     0 NBB=     0.
 MP4(R+Q)=  0.15251724D-01
 E3=       -0.17227971D-01        EUMP3=      -0.61458996552D+03
 E4(DQ)=    0.41355549D-03        UMP4(DQ)=   -0.61458955197D+03
 E4(SDQ)=  -0.61370837D-02        UMP4(SDQ)=  -0.61459610261D+03
 DE(Corr)= -0.65713427     E(Corr)=     -614.57441492    
 NORM(A)=   0.10883262D+01
 Iteration Nr.   2
 **********************
 DD1Dir will call FoFMem   1 times, MxPair=       110
 NAB=    55 NAA=     0 NBB=     0.
 DE(Corr)= -0.67472751     E(CORR)=     -614.59200816     Delta=-1.76D-02
 NORM(A)=   0.10950795D+01
 Iteration Nr.   3
 **********************
 DD1Dir will call FoFMem   1 times, MxPair=       110
 NAB=    55 NAA=     0 NBB=     0.
 DE(Corr)= -0.67491940     E(CORR)=     -614.59220005     Delta=-1.92D-04
 NORM(A)=   0.10967205D+01
 Iteration Nr.   4
 **********************
 DD1Dir will call FoFMem   1 times, MxPair=       110
 NAB=    55 NAA=     0 NBB=     0.
 DE(Corr)= -0.67638839     E(CORR)=     -614.59366904     Delta=-1.47D-03
 NORM(A)=   0.10972357D+01
 Iteration Nr.   5
 **********************
 DD1Dir will call FoFMem   1 times, MxPair=       110
 NAB=    55 NAA=     0 NBB=     0.
 DE(Corr)= -0.67655890     E(CORR)=     -614.59383955     Delta=-1.71D-04
 NORM(A)=   0.10974758D+01
 Iteration Nr.   6
 **********************
 DD1Dir will call FoFMem   1 times, MxPair=       110
 NAB=    55 NAA=     0 NBB=     0.
 DE(Corr)= -0.67658882     E(CORR)=     -614.59386947     Delta=-2.99D-05
 NORM(A)=   0.10975331D+01
 Iteration Nr.   7
 **********************
 DD1Dir will call FoFMem   1 times, MxPair=       110
 NAB=    55 NAA=     0 NBB=     0.
 DE(Corr)= -0.67659523     E(CORR)=     -614.59387588     Delta=-6.41D-06
 NORM(A)=   0.10975467D+01
 Iteration Nr.   8
 **********************
 DD1Dir will call FoFMem   1 times, MxPair=       110
 NAB=    55 NAA=     0 NBB=     0.
 DE(Corr)= -0.67659202     E(CORR)=     -614.59387267     Delta= 3.21D-06
 NORM(A)=   0.10975562D+01
 Iteration Nr.   9
 **********************
 DD1Dir will call FoFMem   1 times, MxPair=       110
 NAB=    55 NAA=     0 NBB=     0.
 DE(Corr)= -0.67659335     E(CORR)=     -614.59387400     Delta=-1.33D-06
 NORM(A)=   0.10975574D+01
 Iteration Nr.  10
 **********************
 DD1Dir will call FoFMem   1 times, MxPair=       110
 NAB=    55 NAA=     0 NBB=     0.
 DE(Corr)= -0.67659368     E(CORR)=     -614.59387433     Delta=-3.25D-07
 NORM(A)=   0.10975592D+01
 Iteration Nr.  11
 **********************
 DD1Dir will call FoFMem   1 times, MxPair=       110
 NAB=    55 NAA=     0 NBB=     0.
 DE(Corr)= -0.67659512     E(CORR)=     -614.59387577     Delta=-1.44D-06
 NORM(A)=   0.10975600D+01
 Iteration Nr.  12
 **********************
 DD1Dir will call FoFMem   1 times, MxPair=       110
 NAB=    55 NAA=     0 NBB=     0.
 DE(Corr)= -0.67659517     E(CORR)=     -614.59387582     Delta=-5.20D-08
 NORM(A)=   0.10975604D+01
 Iteration Nr.  13
 **********************
 DD1Dir will call FoFMem   1 times, MxPair=       110
 NAB=    55 NAA=     0 NBB=     0.
 DE(Corr)= -0.67659546     E(CORR)=     -614.59387611     Delta=-2.86D-07
 NORM(A)=   0.10975607D+01
 Iteration Nr.  14
 **********************
 DD1Dir will call FoFMem   1 times, MxPair=       110
 NAB=    55 NAA=     0 NBB=     0.
 DE(Corr)= -0.67659550     E(CORR)=     -614.59387615     Delta=-4.51D-08
 NORM(A)=   0.10975609D+01
 Iteration Nr.  15
 **********************
 DD1Dir will call FoFMem   1 times, MxPair=       110
 NAB=    55 NAA=     0 NBB=     0.
 DE(Corr)= -0.67659553     E(CORR)=     -614.59387618     Delta=-2.59D-08
 NORM(A)=   0.10975611D+01
 Iteration Nr.  16
 **********************
 DD1Dir will call FoFMem   1 times, MxPair=       110
 NAB=    55 NAA=     0 NBB=     0.
 DE(Corr)= -0.67659556     E(CORR)=     -614.59387621     Delta=-3.06D-08
 NORM(A)=   0.10975611D+01
 Iteration Nr.  17
 **********************
 DD1Dir will call FoFMem   1 times, MxPair=       110
 NAB=    55 NAA=     0 NBB=     0.
 DE(Corr)= -0.67659555     E(CORR)=     -614.59387620     Delta= 4.01D-09
 NORM(A)=   0.10975612D+01
 Wavefunction amplitudes converged. E(Corr)=     -614.59387620    
 Largest amplitude= 5.06D-02

 Z-amplitude iterations

 Iteration Nr.   1
 **********************
 DD1Dir will call FoFMem   1 times, MxPair=       110
 NAB=    55 NAA=     0 NBB=     0.
 DE(Z)= -0.65693910     E(Z)=     -614.57421975     Delta= 1.97D-02
 NORM(A)=   0.10975574D+01
 Iteration Nr.   2
 **********************
 DD1Dir will call FoFMem   1 times, MxPair=       110
 NAB=    55 NAA=     0 NBB=     0.
 DE(Z)= -0.65693800     E(Z)=     -614.57421865     Delta= 1.10D-06
 NORM(A)=   0.10975679D+01
 Iteration Nr.   3
 **********************
 DD1Dir will call FoFMem   1 times, MxPair=       110
 NAB=    55 NAA=     0 NBB=     0.
 DE(Z)= -0.65694059     E(Z)=     -614.57422124     Delta=-2.59D-06
 NORM(A)=   0.10975326D+01
 Iteration Nr.   4
 **********************
 DD1Dir will call FoFMem   1 times, MxPair=       110
 NAB=    55 NAA=     0 NBB=     0.
 DE(Z)= -0.65693241     E(Z)=     -614.57421306     Delta= 8.19D-06
 NORM(A)=   0.10976053D+01
 Iteration Nr.   5
 **********************
 DD1Dir will call FoFMem   1 times, MxPair=       110
 NAB=    55 NAA=     0 NBB=     0.
 DE(Z)= -0.65694935     E(Z)=     -614.57423000     Delta=-1.69D-05
 NORM(A)=   0.10896840D+01
 Iteration Nr.   6
 **********************
 DD1Dir will call FoFMem   1 times, MxPair=       110
 NAB=    55 NAA=     0 NBB=     0.
 DE(Z)= -0.65500972     E(Z)=     -614.57229037     Delta= 1.94D-03
 NORM(A)=   0.10896774D+01
 Iteration Nr.   7
 **********************
 DD1Dir will call FoFMem   1 times, MxPair=       110
 NAB=    55 NAA=     0 NBB=     0.
 DE(Z)= -0.65501071     E(Z)=     -614.57229136     Delta=-9.95D-07
 NORM(A)=   0.10896765D+01
 Iteration Nr.   8
 **********************
 DD1Dir will call FoFMem   1 times, MxPair=       110
 NAB=    55 NAA=     0 NBB=     0.
 DE(Z)= -0.65500975     E(Z)=     -614.57229040     Delta= 9.60D-07
 NORM(A)=   0.10896750D+01
 Iteration Nr.   9
 **********************
 DD1Dir will call FoFMem   1 times, MxPair=       110
 NAB=    55 NAA=     0 NBB=     0.
 DE(Z)= -0.65501094     E(Z)=     -614.57229159     Delta=-1.19D-06
 NORM(A)=   0.10896746D+01
 Iteration Nr.  10
 **********************
 DD1Dir will call FoFMem   1 times, MxPair=       110
 NAB=    55 NAA=     0 NBB=     0.
 DE(Z)= -0.65501030     E(Z)=     -614.57229095     Delta= 6.44D-07
 NORM(A)=   0.10896742D+01
 Iteration Nr.  11
 **********************
 DD1Dir will call FoFMem   1 times, MxPair=       110
 NAB=    55 NAA=     0 NBB=     0.
 DE(Z)= -0.65501047     E(Z)=     -614.57229112     Delta=-1.78D-07
 NORM(A)=   0.10896742D+01
 Iteration Nr.  12
 **********************
 DD1Dir will call FoFMem   1 times, MxPair=       110
 NAB=    55 NAA=     0 NBB=     0.
 DE(Z)= -0.65501043     E(Z)=     -614.57229108     Delta= 4.18D-08
 NORM(A)=   0.10896741D+01
 Iteration Nr.  13
 **********************
 DD1Dir will call FoFMem   1 times, MxPair=       110
 NAB=    55 NAA=     0 NBB=     0.
 DE(Z)= -0.65501044     E(Z)=     -614.57229109     Delta=-1.10D-08
 NORM(A)=   0.10896741D+01
 Iteration Nr.  14
 **********************
 DD1Dir will call FoFMem   1 times, MxPair=       110
 NAB=    55 NAA=     0 NBB=     0.
 DE(Z)= -0.65501045     E(Z)=     -614.57229110     Delta=-8.72D-09
 NORM(A)=   0.10896741D+01
 Z-amplitudes converged.
 Discarding MO integrals.
          IDoAtm=1111
          Differentiating once with respect to electric field.
                with respect to dipole field.
          Differentiating once with respect to nuclear coordinates.
 Keep R1 ints in memory in canonical form, NReq=19347402.
          There are     1 degrees of freedom in the 1st order CPHF.  IDoFFX=0 NUNeed=     1.
 LinEq1:  Iter=  0 NonCon=     1 RMS=3.15D-03 Max=3.75D-02 NDo=     1
 AX will form     1 AO Fock derivatives at one time.
 LinEq1:  Iter=  1 NonCon=     1 RMS=1.18D-03 Max=1.45D-02 NDo=     1
 LinEq1:  Iter=  2 NonCon=     1 RMS=3.96D-04 Max=4.87D-03 NDo=     1
 LinEq1:  Iter=  3 NonCon=     1 RMS=1.63D-04 Max=2.78D-03 NDo=     1
 LinEq1:  Iter=  4 NonCon=     1 RMS=5.41D-05 Max=7.80D-04 NDo=     1
 LinEq1:  Iter=  5 NonCon=     1 RMS=2.00D-05 Max=2.51D-04 NDo=     1
 LinEq1:  Iter=  6 NonCon=     1 RMS=5.44D-06 Max=8.37D-05 NDo=     1
 LinEq1:  Iter=  7 NonCon=     1 RMS=1.46D-06 Max=1.53D-05 NDo=     1
 LinEq1:  Iter=  8 NonCon=     1 RMS=3.84D-07 Max=3.99D-06 NDo=     1
 LinEq1:  Iter=  9 NonCon=     1 RMS=7.20D-08 Max=9.54D-07 NDo=     1
 LinEq1:  Iter= 10 NonCon=     1 RMS=1.63D-08 Max=1.67D-07 NDo=     1
 LinEq1:  Iter= 11 NonCon=     1 RMS=3.26D-09 Max=3.58D-08 NDo=     1
 LinEq1:  Iter= 12 NonCon=     1 RMS=7.53D-10 Max=1.08D-08 NDo=     1
 LinEq1:  Iter= 13 NonCon=     1 RMS=2.00D-10 Max=2.23D-09 NDo=     1
 LinEq1:  Iter= 14 NonCon=     0 RMS=4.29D-11 Max=4.78D-10 NDo=     1
 Linear equations converged to 1.000D-10 1.000D-09 after    14 iterations.
 End of Minotr F.D. properties file   721 does not exist.
 End of Minotr F.D. properties file   722 does not exist.
 End of Minotr F.D. properties file   788 does not exist.

 **********************************************************************

            Population analysis using the CC Density.

 **********************************************************************

 Alpha  occ. eigenvalues -- -104.88117 -26.33430 -15.73630 -10.60388  -8.07079
 Alpha  occ. eigenvalues --   -8.06829  -8.06805  -1.64389  -1.23541  -1.02688
 Alpha  occ. eigenvalues --   -0.76870  -0.72049  -0.70292  -0.60430  -0.53697
 Alpha  occ. eigenvalues --   -0.48807  -0.44576
 Alpha virt. eigenvalues --    0.10518   0.16108   0.23242   0.45167   0.47950
 Alpha virt. eigenvalues --    0.48283   0.51744   0.54855   0.57874   0.59866
 Alpha virt. eigenvalues --    0.61984   0.62716   0.67620   0.69361   0.76079
 Alpha virt. eigenvalues --    0.83398   0.89539   0.99305   1.04090   1.07876
 Alpha virt. eigenvalues --    1.11172   1.24493   1.41506   1.46304   1.54285
 Alpha virt. eigenvalues --    1.60691   1.79897   1.84033   1.91267   2.16145
 Alpha virt. eigenvalues --    2.18806   2.22699   2.23483   2.24628   2.29474
 Alpha virt. eigenvalues --    2.32943   2.35176   2.38621   2.39280   2.40187
 Alpha virt. eigenvalues --    2.50801   2.54752   2.55351   2.57507   2.62367
 Alpha virt. eigenvalues --    2.66940   2.73818   2.82462   2.96166   3.01663
 Alpha virt. eigenvalues --    3.42425   3.46215   3.57425   3.74367   3.78397
 Alpha virt. eigenvalues --    3.92672   4.13083   4.14877   4.18944   4.26716
 Alpha virt. eigenvalues --    4.38305   4.53203   4.57733   4.62719   4.67643
 Alpha virt. eigenvalues --    5.03988   5.07553   5.10305   5.20458   5.35614
 Alpha virt. eigenvalues --    5.41881   5.70128   5.84177   5.88923   5.95712
 Alpha virt. eigenvalues --    6.10300   6.47296   7.37873   7.38415   7.43056
 Alpha virt. eigenvalues --    7.46262   7.73362   7.77052   8.01252   8.87566
 Alpha virt. eigenvalues --    8.89232   9.19553   9.25911   9.41623  10.63230
 Alpha virt. eigenvalues --   11.63869
          Condensed to atoms (all electrons):
               1          2          3          4
     1  N    6.414770   0.132397   0.310144   0.107972
     2  Cl   0.132397  16.946622  -0.027411  -0.040153
     3  H    0.310144  -0.027411   0.583643  -0.023064
     4  F    0.107972  -0.040153  -0.023064   9.135195
 Mulliken charges:
               1
     1  N    0.034717
     2  Cl  -0.011455
     3  H    0.156688
     4  F   -0.179949
 Sum of Mulliken charges =  -0.00000
 Mulliken charges with hydrogens summed into heavy atoms:
               1
     1  N    0.191404
     2  Cl  -0.011455
     4  F   -0.179949
 Electronic spatial extent (au):  <R**2>=            217.7931
 Charge=             -0.0000 electrons
 Dipole moment (field-independent basis, Debye):
    X=             -0.3365    Y=              1.0458    Z=              1.3169  Tot=              1.7150
 Quadrupole moment (field-independent basis, Debye-Ang):
   XX=            -23.7225   YY=            -22.3420   ZZ=            -23.3103
   XY=              1.4091   XZ=              0.9090   YZ=              1.8234
 Traceless Quadrupole moment (field-independent basis, Debye-Ang):
   XX=             -0.5976   YY=              0.7829   ZZ=             -0.1854
   XY=              1.4091   XZ=              0.9090   YZ=              1.8234
 Octapole moment (field-independent basis, Debye-Ang**2):
  XXX=              2.9878  YYY=             -0.6502  ZZZ=              1.7719  XYY=              3.0087
  XXY=             -1.3592  XXZ=              1.0303  XZZ=              3.3649  YZZ=             -0.0857
  YYZ=              2.4256  XYZ=              1.2773
 Hexadecapole moment (field-independent basis, Debye-Ang**3):
 XXXX=           -168.6213 YYYY=            -42.3146 ZZZZ=            -24.7728 XXXY=              1.2068
 XXXZ=              0.5510 YYYX=             -2.2736 YYYZ=              3.2455 ZZZX=              1.4281
 ZZZY=              2.1373 XXYY=            -35.1046 XXZZ=            -33.8518 YYZZ=            -10.9689
 XXYZ=              0.7843 YYXZ=              1.6391 ZZXY=             -0.6433
 N-N= 1.022042319323D+02 E-N=-1.666627256110D+03  KE= 6.145683910649D+02
 Calling FoFJK, ICntrl=  10002127 FMM=F ISym2X=0 I1Cent= 0 IOpClX= 0 NMat=1 NMatS=1 NMatT=0.
 -------------------------------------------------------------------
 Center     Atomic                   Forces (Hartrees/Bohr)
 Number     Number              X              Y              Z
 -------------------------------------------------------------------
      1        7           0.000131256   -0.000011330    0.000215826
      2       17           0.000041948   -0.000007271   -0.000001080
      3        1          -0.000052186   -0.000043225   -0.000162995
      4        9          -0.000121019    0.000061826   -0.000051752
 -------------------------------------------------------------------
 Cartesian Forces:  Max     0.000215826 RMS     0.000099187
 NDeriv=     12 NFrqRd=  0 NDerD0=      0 MskFDP=       0 MskDFD=       0 MskDF0=       0
 Re-enter D2Numr:  atom      1 IXYZ=1 step-down number 1
 Standard basis: CC-pVTZ (5D, 7F)
   108 basis functions,   215 primitive gaussians,   124 cartesian basis functions
    17 alpha electrons       17 beta electrons
       nuclear repulsion energy       102.1779677624 Hartrees.
 NAtoms=    4 NActive=    4 NUniq=    4 SFac= 1.00D+00 NAtFMM=   60 NAOKFM=F Big=F
 Integral buffers will be    131072 words long.
 Raffenetti 1 integral format.
 Two-electron integral symmetry is turned off.
 One-electron integrals computed using PRISM.
 NBasis=   108 RedAO= T EigKep=  2.02D-03  NBF=   108
 NBsUse=   108 1.00D-06 EigRej= -1.00D+00 NBFU=   108
 Initial guess from the checkpoint file:  "/tmp/webmo-1487/59/Gau-2299.chk"
 B after Tr=     0.000000    0.000389   -0.000000
         Rot=    1.000000   -0.000088   -0.000000   -0.000041 Ang=  -0.01 deg.
 Keep R1 ints in memory in canonical form, NReq=19346014.
 Requested convergence on RMS density matrix=1.00D-08 within 128 cycles.
 Requested convergence on MAX density matrix=1.00D-06.
 Requested convergence on             energy=1.00D-06.
 No special actions if energy rises.
 SCF Done:  E(RHF) =  -613.917251965     A.U. after    8 cycles
            NFock=  8  Conv=0.77D-08     -V/T= 2.0003
 ExpMin= 1.03D-01 ExpMax= 4.56D+05 ExpMxC= 1.44D+03 IAcc=3 IRadAn=         5 AccDes= 0.00D+00
 HarFok:  IExCor=  205 AccDes= 0.00D+00 IRadAn=         5 IDoV=-2 UseB2=F ITyADJ=14
 ICtDFT= 12500011 ScaDFX=  1.000000  1.000000  1.000000  1.000000
 Range of M.O.s used for correlation:     8   108
 NBasis=   108 NAE=    17 NBE=    17 NFC=     7 NFV=     0
 NROrb=    101 NOA=    10 NOB=    10 NVA=    91 NVB=    91
 Semi-Direct transformation.
 ModeAB=           2 MOrb=            10 LenV=     104382943
 LASXX=      4780810 LTotXX=     4780810 LenRXX=     4780810
 LTotAB=     4920665 MaxLAS=     7827500 LenRXY=     7827500
 NonZer=     9561620 LenScr=    15093760 LnRSAI=           0
 LnScr1=           0 LExtra=           0 Total=     27702070
 MaxDsk=          -1 SrtSym=           F ITran=            4
 JobTyp=0 Pass  1:  I=   1 to  10.
 (rs|ai) integrals will be sorted in core.
 Spin components of T(2) and E(2):
     alpha-alpha T2 =       0.2305816956D-01 E2=     -0.8263882795D-01
     alpha-beta  T2 =       0.1312332734D+00 E2=     -0.4902033169D+00
     beta-beta   T2 =       0.2305816956D-01 E2=     -0.8263882795D-01
 ANorm=    0.1085057424D+01
 E2 =    -0.6554809728D+00 EUMP2 =    -0.61457273293757D+03
 Keep R2 and R3 ints in memory in canonical form, NReq=36676769.
 CIDS: In Core Option IDoMem=           1.
 Iterations=  50 Convergence= 0.100D-07
 Produce multiple copies of IABC intergrals
 Iteration Nr.   1
 **********************
 DD1Dir will call FoFMem   1 times, MxPair=       110
 NAB=    55 NAA=     0 NBB=     0.
 MP4(R+Q)=  0.15261123D-01
 E3=       -0.17231922D-01        EUMP3=      -0.61458996486D+03
 E4(DQ)=    0.41671304D-03        UMP4(DQ)=   -0.61458954815D+03
 E4(SDQ)=  -0.61387725D-02        UMP4(SDQ)=  -0.61459610363D+03
 DE(Corr)= -0.65715234     E(Corr)=     -614.57440431    
 NORM(A)=   0.10883499D+01
 Iteration Nr.   2
 **********************
 DD1Dir will call FoFMem   1 times, MxPair=       110
 NAB=    55 NAA=     0 NBB=     0.
 DE(Corr)= -0.67475492     E(CORR)=     -614.59200689     Delta=-1.76D-02
 NORM(A)=   0.10951087D+01
 Iteration Nr.   3
 **********************
 DD1Dir will call FoFMem   1 times, MxPair=       110
 NAB=    55 NAA=     0 NBB=     0.
 DE(Corr)= -0.67494523     E(CORR)=     -614.59219720     Delta=-1.90D-04
 NORM(A)=   0.10967521D+01
 Iteration Nr.   4
 **********************
 DD1Dir will call FoFMem   1 times, MxPair=       110
 NAB=    55 NAA=     0 NBB=     0.
 DE(Corr)= -0.67641592     E(CORR)=     -614.59366789     Delta=-1.47D-03
 NORM(A)=   0.10972681D+01
 Iteration Nr.   5
 **********************
 DD1Dir will call FoFMem   1 times, MxPair=       110
 NAB=    55 NAA=     0 NBB=     0.
 DE(Corr)= -0.67658668     E(CORR)=     -614.59383864     Delta=-1.71D-04
 NORM(A)=   0.10975087D+01
 Iteration Nr.   6
 **********************
 DD1Dir will call FoFMem   1 times, MxPair=       110
 NAB=    55 NAA=     0 NBB=     0.
 DE(Corr)= -0.67661663     E(CORR)=     -614.59386859     Delta=-3.00D-05
 NORM(A)=   0.10975660D+01
 Iteration Nr.   7
 **********************
 DD1Dir will call FoFMem   1 times, MxPair=       110
 NAB=    55 NAA=     0 NBB=     0.
 DE(Corr)= -0.67662306     E(CORR)=     -614.59387502     Delta=-6.43D-06
 NORM(A)=   0.10975797D+01
 Iteration Nr.   8
 **********************
 DD1Dir will call FoFMem   1 times, MxPair=       110
 NAB=    55 NAA=     0 NBB=     0.
 DE(Corr)= -0.67661985     E(CORR)=     -614.59387181     Delta= 3.21D-06
 NORM(A)=   0.10975892D+01
 Iteration Nr.   9
 **********************
 DD1Dir will call FoFMem   1 times, MxPair=       110
 NAB=    55 NAA=     0 NBB=     0.
 DE(Corr)= -0.67662117     E(CORR)=     -614.59387314     Delta=-1.33D-06
 NORM(A)=   0.10975904D+01
 Iteration Nr.  10
 **********************
 DD1Dir will call FoFMem   1 times, MxPair=       110
 NAB=    55 NAA=     0 NBB=     0.
 DE(Corr)= -0.67662150     E(CORR)=     -614.59387347     Delta=-3.27D-07
 NORM(A)=   0.10975922D+01
 Iteration Nr.  11
 **********************
 DD1Dir will call FoFMem   1 times, MxPair=       110
 NAB=    55 NAA=     0 NBB=     0.
 DE(Corr)= -0.67662294     E(CORR)=     -614.59387491     Delta=-1.44D-06
 NORM(A)=   0.10975930D+01
 Iteration Nr.  12
 **********************
 DD1Dir will call FoFMem   1 times, MxPair=       110
 NAB=    55 NAA=     0 NBB=     0.
 DE(Corr)= -0.67662299     E(CORR)=     -614.59387496     Delta=-5.22D-08
 NORM(A)=   0.10975934D+01
 Iteration Nr.  13
 **********************
 DD1Dir will call FoFMem   1 times, MxPair=       110
 NAB=    55 NAA=     0 NBB=     0.
 DE(Corr)= -0.67662328     E(CORR)=     -614.59387525     Delta=-2.87D-07
 NORM(A)=   0.10975937D+01
 Iteration Nr.  14
 **********************
 DD1Dir will call FoFMem   1 times, MxPair=       110
 NAB=    55 NAA=     0 NBB=     0.
 DE(Corr)= -0.67662333     E(CORR)=     -614.59387529     Delta=-4.51D-08
 NORM(A)=   0.10975939D+01
 Iteration Nr.  15
 **********************
 DD1Dir will call FoFMem   1 times, MxPair=       110
 NAB=    55 NAA=     0 NBB=     0.
 DE(Corr)= -0.67662335     E(CORR)=     -614.59387532     Delta=-2.59D-08
 NORM(A)=   0.10975941D+01
 Iteration Nr.  16
 **********************
 DD1Dir will call FoFMem   1 times, MxPair=       110
 NAB=    55 NAA=     0 NBB=     0.
 DE(Corr)= -0.67662338     E(CORR)=     -614.59387535     Delta=-3.07D-08
 NORM(A)=   0.10975941D+01
 Iteration Nr.  17
 **********************
 DD1Dir will call FoFMem   1 times, MxPair=       110
 NAB=    55 NAA=     0 NBB=     0.
 DE(Corr)= -0.67662338     E(CORR)=     -614.59387534     Delta= 3.90D-09
 NORM(A)=   0.10975942D+01
 Wavefunction amplitudes converged. E(Corr)=     -614.59387534    
 Largest amplitude= 5.06D-02

 Z-amplitude iterations

 Iteration Nr.   1
 **********************
 DD1Dir will call FoFMem   1 times, MxPair=       110
 NAB=    55 NAA=     0 NBB=     0.
 DE(Z)= -0.65695326     E(Z)=     -614.57420523     Delta= 1.97D-02
 NORM(A)=   0.10975899D+01
 Iteration Nr.   2
 **********************
 DD1Dir will call FoFMem   1 times, MxPair=       110
 NAB=    55 NAA=     0 NBB=     0.
 DE(Z)= -0.65695202     E(Z)=     -614.57420398     Delta= 1.24D-06
 NORM(A)=   0.10975992D+01
 Iteration Nr.   3
 **********************
 DD1Dir will call FoFMem   1 times, MxPair=       110
 NAB=    55 NAA=     0 NBB=     0.
 DE(Z)= -0.65695438     E(Z)=     -614.57420634     Delta=-2.36D-06
 NORM(A)=   0.10974941D+01
 Iteration Nr.   4
 **********************
 DD1Dir will call FoFMem   1 times, MxPair=       110
 NAB=    55 NAA=     0 NBB=     0.
 DE(Z)= -0.65692977     E(Z)=     -614.57418174     Delta= 2.46D-05
 NORM(A)=   0.10976353D+01
 Iteration Nr.   5
 **********************
 DD1Dir will call FoFMem   1 times, MxPair=       110
 NAB=    55 NAA=     0 NBB=     0.
 DE(Z)= -0.65696280     E(Z)=     -614.57421476     Delta=-3.30D-05
 NORM(A)=   0.10897076D+01
 Iteration Nr.   6
 **********************
 DD1Dir will call FoFMem   1 times, MxPair=       110
 NAB=    55 NAA=     0 NBB=     0.
 DE(Z)= -0.65502335     E(Z)=     -614.57227531     Delta= 1.94D-03
 NORM(A)=   0.10897006D+01
 Iteration Nr.   7
 **********************
 DD1Dir will call FoFMem   1 times, MxPair=       110
 NAB=    55 NAA=     0 NBB=     0.
 DE(Z)= -0.65502379     E(Z)=     -614.57227576     Delta=-4.44D-07
 NORM(A)=   0.10896994D+01
 Iteration Nr.   8
 **********************
 DD1Dir will call FoFMem   1 times, MxPair=       110
 NAB=    55 NAA=     0 NBB=     0.
 DE(Z)= -0.65502399     E(Z)=     -614.57227595     Delta=-1.94D-07
 NORM(A)=   0.10896983D+01
 Iteration Nr.   9
 **********************
 DD1Dir will call FoFMem   1 times, MxPair=       110
 NAB=    55 NAA=     0 NBB=     0.
 DE(Z)= -0.65502429     E(Z)=     -614.57227626     Delta=-3.04D-07
 NORM(A)=   0.10896978D+01
 Iteration Nr.  10
 **********************
 DD1Dir will call FoFMem   1 times, MxPair=       110
 NAB=    55 NAA=     0 NBB=     0.
 DE(Z)= -0.65502397     E(Z)=     -614.57227593     Delta= 3.23D-07
 NORM(A)=   0.10896975D+01
 Iteration Nr.  11
 **********************
 DD1Dir will call FoFMem   1 times, MxPair=       110
 NAB=    55 NAA=     0 NBB=     0.
 DE(Z)= -0.65502404     E(Z)=     -614.57227601     Delta=-7.18D-08
 NORM(A)=   0.10896975D+01
 Iteration Nr.  12
 **********************
 DD1Dir will call FoFMem   1 times, MxPair=       110
 NAB=    55 NAA=     0 NBB=     0.
 DE(Z)= -0.65502399     E(Z)=     -614.57227595     Delta= 5.09D-08
 NORM(A)=   0.10896974D+01
 Iteration Nr.  13
 **********************
 DD1Dir will call FoFMem   1 times, MxPair=       110
 NAB=    55 NAA=     0 NBB=     0.
 DE(Z)= -0.65502399     E(Z)=     -614.57227596     Delta=-4.50D-09
 NORM(A)=   0.10896974D+01
 Z-amplitudes converged.
 Discarding MO integrals.
          IDoAtm=1111
          Differentiating once with respect to electric field.
                with respect to dipole field.
          Differentiating once with respect to nuclear coordinates.
 Keep R1 ints in memory in canonical form, NReq=19347374.
          There are     1 degrees of freedom in the 1st order CPHF.  IDoFFX=0 NUNeed=     1.
 LinEq1:  Iter=  0 NonCon=     1 RMS=3.16D-03 Max=3.75D-02 NDo=     1
 AX will form     1 AO Fock derivatives at one time.
 LinEq1:  Iter=  1 NonCon=     1 RMS=1.18D-03 Max=1.46D-02 NDo=     1
 LinEq1:  Iter=  2 NonCon=     1 RMS=3.97D-04 Max=4.86D-03 NDo=     1
 LinEq1:  Iter=  3 NonCon=     1 RMS=1.63D-04 Max=2.79D-03 NDo=     1
 LinEq1:  Iter=  4 NonCon=     1 RMS=5.41D-05 Max=7.82D-04 NDo=     1
 LinEq1:  Iter=  5 NonCon=     1 RMS=2.00D-05 Max=2.50D-04 NDo=     1
 LinEq1:  Iter=  6 NonCon=     1 RMS=5.44D-06 Max=8.37D-05 NDo=     1
 LinEq1:  Iter=  7 NonCon=     1 RMS=1.46D-06 Max=1.53D-05 NDo=     1
 LinEq1:  Iter=  8 NonCon=     1 RMS=3.85D-07 Max=4.00D-06 NDo=     1
 LinEq1:  Iter=  9 NonCon=     1 RMS=7.24D-08 Max=9.57D-07 NDo=     1
 LinEq1:  Iter= 10 NonCon=     1 RMS=1.64D-08 Max=1.66D-07 NDo=     1
 LinEq1:  Iter= 11 NonCon=     1 RMS=3.28D-09 Max=3.62D-08 NDo=     1
 LinEq1:  Iter= 12 NonCon=     1 RMS=7.62D-10 Max=1.09D-08 NDo=     1
 LinEq1:  Iter= 13 NonCon=     1 RMS=2.01D-10 Max=2.21D-09 NDo=     1
 LinEq1:  Iter= 14 NonCon=     0 RMS=4.30D-11 Max=4.80D-10 NDo=     1
 Linear equations converged to 1.000D-10 1.000D-09 after    14 iterations.
 End of Minotr F.D. properties file   721 does not exist.
 End of Minotr F.D. properties file   722 does not exist.
 End of Minotr F.D. properties file   788 does not exist.

 **********************************************************************

            Population analysis using the CC Density.

 **********************************************************************

 Alpha  occ. eigenvalues -- -104.88113 -26.33439 -15.73647 -10.60382  -8.07072
 Alpha  occ. eigenvalues --   -8.06823  -8.06799  -1.64393  -1.23511  -1.02710
 Alpha  occ. eigenvalues --   -0.76878  -0.72050  -0.70289  -0.60419  -0.53681
 Alpha  occ. eigenvalues --   -0.48802  -0.44596
 Alpha virt. eigenvalues --    0.10492   0.16094   0.23229   0.45157   0.47961
 Alpha virt. eigenvalues --    0.48291   0.51750   0.54877   0.57861   0.59860
 Alpha virt. eigenvalues --    0.61993   0.62713   0.67617   0.69349   0.76054
 Alpha virt. eigenvalues --    0.83390   0.89519   0.99266   1.04095   1.07866
 Alpha virt. eigenvalues --    1.11150   1.24508   1.41536   1.46223   1.54314
 Alpha virt. eigenvalues --    1.60648   1.79909   1.84070   1.91254   2.16146
 Alpha virt. eigenvalues --    2.18812   2.22713   2.23490   2.24634   2.29473
 Alpha virt. eigenvalues --    2.32932   2.35185   2.38618   2.39284   2.40147
 Alpha virt. eigenvalues --    2.50799   2.54754   2.55346   2.57498   2.62312
 Alpha virt. eigenvalues --    2.66869   2.73762   2.82395   2.96158   3.01528
 Alpha virt. eigenvalues --    3.42439   3.46178   3.57404   3.74395   3.78354
 Alpha virt. eigenvalues --    3.92694   4.13075   4.14880   4.18952   4.26661
 Alpha virt. eigenvalues --    4.38378   4.53200   4.57744   4.62662   4.67634
 Alpha virt. eigenvalues --    5.03937   5.07536   5.10251   5.20353   5.35613
 Alpha virt. eigenvalues --    5.41839   5.70126   5.84289   5.89096   5.95701
 Alpha virt. eigenvalues --    6.10410   6.47263   7.37867   7.38409   7.43045
 Alpha virt. eigenvalues --    7.46259   7.73344   7.77037   8.01251   8.87557
 Alpha virt. eigenvalues --    8.89227   9.19576   9.25895   9.41702  10.63450
 Alpha virt. eigenvalues --   11.63851
          Condensed to atoms (all electrons):
               1          2          3          4
     1  N    6.414340   0.132546   0.310097   0.108036
     2  Cl   0.132546  16.946828  -0.027299  -0.040225
     3  H    0.310097  -0.027299   0.583482  -0.022988
     4  F    0.108036  -0.040225  -0.022988   9.135017
 Mulliken charges:
               1
     1  N    0.034981
     2  Cl  -0.011850
     3  H    0.156708
     4  F   -0.179840
 Sum of Mulliken charges =  -0.00000
 Mulliken charges with hydrogens summed into heavy atoms:
               1
     1  N    0.191690
     2  Cl  -0.011850
     4  F   -0.179840
 Electronic spatial extent (au):  <R**2>=            217.8518
 Charge=             -0.0000 electrons
 Dipole moment (field-independent basis, Debye):
    X=             -0.3339    Y=              1.0463    Z=              1.3170  Tot=              1.7149
 Quadrupole moment (field-independent basis, Debye-Ang):
   XX=            -23.7230   YY=            -22.3417   ZZ=            -23.3108
   XY=              1.4103   XZ=              0.9090   YZ=              1.8235
 Traceless Quadrupole moment (field-independent basis, Debye-Ang):
   XX=             -0.5979   YY=              0.7835   ZZ=             -0.1857
   XY=              1.4103   XZ=              0.9090   YZ=              1.8235
 Octapole moment (field-independent basis, Debye-Ang**2):
  XXX=              2.9807  YYY=             -0.6665  ZZZ=              1.7728  XYY=              3.0043
  XXY=             -1.3672  XXZ=              1.0312  XZZ=              3.3606  YZZ=             -0.0909
  YYZ=              2.4270  XYZ=              1.2781
 Hexadecapole moment (field-independent basis, Debye-Ang**3):
 XXXX=           -168.6685 YYYY=            -42.3517 ZZZZ=            -24.7733 XXXY=              1.1936
 XXXZ=              0.5536 YYYX=             -2.2929 YYYZ=              3.2502 ZZZX=              1.4312
 ZZZY=              2.1408 XXYY=            -35.1162 XXZZ=            -33.8580 YYZZ=            -10.9761
 XXYZ=              0.7857 YYXZ=              1.6411 ZZXY=             -0.6491
 N-N= 1.021779677624D+02 E-N=-1.666574375957D+03  KE= 6.145676340035D+02
 Calling FoFJK, ICntrl=  10002127 FMM=F ISym2X=0 I1Cent= 0 IOpClX= 0 NMat=1 NMatS=1 NMatT=0.
 -------------------------------------------------------------------
 Center     Atomic                   Forces (Hartrees/Bohr)
 Number     Number              X              Y              Z
 -------------------------------------------------------------------
      1        7          -0.000357541   -0.000675274   -0.000149994
      2       17           0.000386375    0.000260320   -0.000078470
      3        1           0.000059624    0.000177744    0.000276371
      4        9          -0.000088459    0.000237210   -0.000047907
 -------------------------------------------------------------------
 Cartesian Forces:  Max     0.000675274 RMS     0.000289749
 NDeriv=     12 NFrqRd=  0 NDerD0=      0 MskFDP=       0 MskDFD=       0 MskDF0=       0
 Re-enter D2Numr:  atom      1 IXYZ=2 step-up   number 1
 Standard basis: CC-pVTZ (5D, 7F)
   108 basis functions,   215 primitive gaussians,   124 cartesian basis functions
    17 alpha electrons       17 beta electrons
       nuclear repulsion energy       102.2169704681 Hartrees.
 NAtoms=    4 NActive=    4 NUniq=    4 SFac= 1.00D+00 NAtFMM=   60 NAOKFM=F Big=F
 Integral buffers will be    131072 words long.
 Raffenetti 1 integral format.
 Two-electron integral symmetry is turned off.
 One-electron integrals computed using PRISM.
[...]
 NAB=    55 NAA=     0 NBB=     0.
 DE(Z)= -0.65499269     E(Z)=     -614.57229308     Delta= 3.13D-08
 NORM(A)=   0.10896705D+01
 Iteration Nr.  14
 **********************
 DD1Dir will call FoFMem   1 times, MxPair=       110
 NAB=    55 NAA=     0 NBB=     0.
 DE(Z)= -0.65499270     E(Z)=     -614.57229309     Delta=-1.01D-08
 NORM(A)=   0.10896705D+01
 Iteration Nr.  15
 **********************
 DD1Dir will call FoFMem   1 times, MxPair=       110
 NAB=    55 NAA=     0 NBB=     0.
 DE(Z)= -0.65499270     E(Z)=     -614.57229309     Delta= 1.14D-09
 NORM(A)=   0.10896705D+01
 Z-amplitudes converged.
 Discarding MO integrals.
          IDoAtm=1111
          Differentiating once with respect to electric field.
                with respect to dipole field.
          Differentiating once with respect to nuclear coordinates.
 Keep R1 ints in memory in canonical form, NReq=19347402.
          There are     1 degrees of freedom in the 1st order CPHF.  IDoFFX=0 NUNeed=     1.
 LinEq1:  Iter=  0 NonCon=     1 RMS=3.15D-03 Max=3.73D-02 NDo=     1
 AX will form     1 AO Fock derivatives at one time.
 LinEq1:  Iter=  1 NonCon=     1 RMS=1.17D-03 Max=1.45D-02 NDo=     1
 LinEq1:  Iter=  2 NonCon=     1 RMS=3.96D-04 Max=4.86D-03 NDo=     1
 LinEq1:  Iter=  3 NonCon=     1 RMS=1.63D-04 Max=2.78D-03 NDo=     1
 LinEq1:  Iter=  4 NonCon=     1 RMS=5.40D-05 Max=7.80D-04 NDo=     1
 LinEq1:  Iter=  5 NonCon=     1 RMS=2.00D-05 Max=2.50D-04 NDo=     1
 LinEq1:  Iter=  6 NonCon=     1 RMS=5.43D-06 Max=8.37D-05 NDo=     1
 LinEq1:  Iter=  7 NonCon=     1 RMS=1.46D-06 Max=1.53D-05 NDo=     1
 LinEq1:  Iter=  8 NonCon=     1 RMS=3.84D-07 Max=3.99D-06 NDo=     1
 LinEq1:  Iter=  9 NonCon=     1 RMS=7.22D-08 Max=9.53D-07 NDo=     1
 LinEq1:  Iter= 10 NonCon=     1 RMS=1.64D-08 Max=1.66D-07 NDo=     1
 LinEq1:  Iter= 11 NonCon=     1 RMS=3.29D-09 Max=3.61D-08 NDo=     1
 LinEq1:  Iter= 12 NonCon=     1 RMS=7.61D-10 Max=1.08D-08 NDo=     1
 LinEq1:  Iter= 13 NonCon=     1 RMS=2.01D-10 Max=2.21D-09 NDo=     1
 LinEq1:  Iter= 14 NonCon=     0 RMS=4.29D-11 Max=4.80D-10 NDo=     1
 Linear equations converged to 1.000D-10 1.000D-09 after    14 iterations.
 End of Minotr F.D. properties file   721 does not exist.
 End of Minotr F.D. properties file   722 does not exist.
 End of Minotr F.D. properties file   788 does not exist.

 **********************************************************************

            Population analysis using the CC Density.

 **********************************************************************

 Alpha  occ. eigenvalues -- -104.88107 -26.33451 -15.73633 -10.60377  -8.07067
 Alpha  occ. eigenvalues --   -8.06818  -8.06794  -1.64435  -1.23509  -1.02695
 Alpha  occ. eigenvalues --   -0.76899  -0.72075  -0.70318  -0.60412  -0.53676
 Alpha  occ. eigenvalues --   -0.48801  -0.44575
 Alpha virt. eigenvalues --    0.10505   0.16099   0.23287   0.45167   0.47961
 Alpha virt. eigenvalues --    0.48291   0.51751   0.54871   0.57870   0.59873
 Alpha virt. eigenvalues --    0.61993   0.62714   0.67621   0.69355   0.76064
 Alpha virt. eigenvalues --    0.83389   0.89513   0.99276   1.04091   1.07858
 Alpha virt. eigenvalues --    1.11162   1.24491   1.41505   1.46288   1.54325
 Alpha virt. eigenvalues --    1.60640   1.79900   1.84061   1.91281   2.16134
 Alpha virt. eigenvalues --    2.18809   2.22714   2.23492   2.24634   2.29480
 Alpha virt. eigenvalues --    2.32942   2.35200   2.38629   2.39290   2.40190
 Alpha virt. eigenvalues --    2.50797   2.54759   2.55354   2.57519   2.62400
 Alpha virt. eigenvalues --    2.66890   2.73856   2.82442   2.96148   3.01617
 Alpha virt. eigenvalues --    3.42440   3.46180   3.57422   3.74416   3.78348
 Alpha virt. eigenvalues --    3.92644   4.13056   4.14899   4.18943   4.26729
 Alpha virt. eigenvalues --    4.38328   4.53226   4.57750   4.62671   4.67629
 Alpha virt. eigenvalues --    5.03966   5.07542   5.10279   5.20440   5.35624
 Alpha virt. eigenvalues --    5.41893   5.70099   5.84176   5.88937   5.95645
 Alpha virt. eigenvalues --    6.10271   6.47436   7.37850   7.38392   7.43065
 Alpha virt. eigenvalues --    7.46286   7.73467   7.77161   8.01349   8.87559
 Alpha virt. eigenvalues --    8.89218   9.19621   9.25974   9.41639  10.63568
 Alpha virt. eigenvalues --   11.64171
          Condensed to atoms (all electrons):
               1          2          3          4
     1  N    6.414758   0.132427   0.310025   0.107999
     2  Cl   0.132427  16.947066  -0.027376  -0.040191
     3  H    0.310025  -0.027376   0.583778  -0.023080
     4  F    0.107999  -0.040191  -0.023080   9.134789
 Mulliken charges:
               1
     1  N    0.034791
     2  Cl  -0.011926
     3  H    0.156653
     4  F   -0.179518
 Sum of Mulliken charges =  -0.00000
 Mulliken charges with hydrogens summed into heavy atoms:
               1
     1  N    0.191444
     2  Cl  -0.011926
     4  F   -0.179518
 Electronic spatial extent (au):  <R**2>=            217.8179
 Charge=             -0.0000 electrons
 Dipole moment (field-independent basis, Debye):
    X=             -0.3316    Y=              1.0449    Z=              1.3175  Tot=              1.7140
 Quadrupole moment (field-independent basis, Debye-Ang):
   XX=            -23.7199   YY=            -22.3435   ZZ=            -23.3111
   XY=              1.4080   XZ=              0.9098   YZ=              1.8234
 Traceless Quadrupole moment (field-independent basis, Debye-Ang):
   XX=             -0.5951   YY=              0.7813   ZZ=             -0.1863
   XY=              1.4080   XZ=              0.9098   YZ=              1.8234
 Octapole moment (field-independent basis, Debye-Ang**2):
  XXX=              2.9867  YYY=             -0.6517  ZZZ=              1.7863  XYY=              3.0060
  XXY=             -1.3603  XXZ=              1.0364  XZZ=              3.3619  YZZ=             -0.0865
  YYZ=              2.4309  XYZ=              1.2773
 Hexadecapole moment (field-independent basis, Debye-Ang**3):
 XXXX=           -168.6458 YYYY=            -42.3174 ZZZZ=            -24.7738 XXXY=              1.1954
 XXXZ=              0.5752 YYYX=             -2.2874 YYYZ=              3.2413 ZZZX=              1.4519
 ZZZY=              2.1315 XXYY=            -35.1124 XXZZ=            -33.8568 YYZZ=            -10.9701
 XXYZ=              0.7831 YYXZ=              1.6468 ZZXY=             -0.6476
 N-N= 1.021992937293D+02 E-N=-1.666616982223D+03  KE= 6.145684737657D+02
 Calling FoFJK, ICntrl=  10002127 FMM=F ISym2X=0 I1Cent= 0 IOpClX= 0 NMat=1 NMatS=1 NMatT=0.
 -------------------------------------------------------------------
 Center     Atomic                   Forces (Hartrees/Bohr)
 Number     Number              X              Y              Z
 -------------------------------------------------------------------
      1        7          -0.000462405    0.000089092    0.000030711
      2       17           0.000259345    0.000109623   -0.000043530
      3        1           0.000071317   -0.000077309   -0.000060263
      4        9           0.000131744   -0.000121405    0.000073082
 -------------------------------------------------------------------
 Cartesian Forces:  Max     0.000462405 RMS     0.000172241
 NDeriv=     12 NFrqRd=  0 NDerD0=      0 MskFDP=       0 MskDFD=       0 MskDF0=       0
 Re-enter D2Numr:  atom      4 IXYZ=3 step-down number 1
 Maximum difference in off-diagonal FC elements:
 I=  9 J=  5 Difference=    2.5531427778D-05
 Max difference between analytic and numerical forces:
 I=  6 Difference=    5.1162160173D-06
 Full mass-weighted force constant matrix:
 Low frequencies ---   -8.6287   -1.4573   -0.4605    1.1396    6.7228   14.7854
 Low frequencies ---  389.5241  724.0781  973.9281
 Diagonal vibrational polarizability:
        3.5324314       1.1385951       0.0381653
 Harmonic frequencies (cm**-1), IR intensities (KM/Mole), Raman scattering
 activities (A**4/AMU), depolarization ratios for plane and unpolarized
 incident light, reduced masses (AMU), force constants (mDyne/A),
 and normal coordinates:
                      1                      2                      3
                      A                      A                      A
 Frequencies --    389.5240               724.0781               973.9281
 Red. masses --     18.4729                13.7579                13.6873
 Frc consts  --      1.6514                 4.2498                 7.6493
 IR Inten    --      0.6913                26.6208                79.9538
  Atom  AN      X      Y      Z        X      Y      Z        X      Y      Z
     1   7     0.10  -0.37   0.04     0.68   0.51  -0.13    -0.47   0.57  -0.15
     2  17    -0.42   0.09  -0.01    -0.24  -0.17   0.03     0.00  -0.01   0.01
     3   1    -0.03  -0.39   0.06     0.33   0.02   0.23    -0.17  -0.19   0.27
     4   9     0.70   0.13  -0.02    -0.08  -0.07   0.02     0.35  -0.40   0.08
                      4                      5                      6
                      A                      A                      A
 Frequencies --   1169.3798              1454.0949              3471.6499
 Red. masses --      1.1580                 1.0773                 1.0769
 Frc consts  --      0.9329                 1.3421                 7.6473
 IR Inten    --     38.0923                13.8311                11.6785
  Atom  AN      X      Y      Z        X      Y      Z        X      Y      Z
     1   7    -0.02   0.01   0.09    -0.04  -0.00  -0.03    -0.01  -0.04  -0.06
     2  17    -0.02  -0.01  -0.01    -0.00  -0.00  -0.00     0.00   0.00  -0.00
     3   1     0.50   0.77  -0.39     0.88  -0.45   0.12     0.09   0.49   0.87
     4   9     0.02  -0.03  -0.02    -0.01   0.03   0.03     0.00   0.00  -0.00

 -------------------
 - Thermochemistry -
 -------------------
 Temperature   298.150 Kelvin.  Pressure   1.00000 Atm.
 Atom     1 has atomic number  7 and mass  14.00307
 Atom     2 has atomic number 17 and mass  34.96885
 Atom     3 has atomic number  1 and mass   1.00783
 Atom     4 has atomic number  9 and mass  18.99840
 Molecular mass:    68.97816 amu.
 Principal axes and moments of inertia in atomic units:
                           1         2         3
     Eigenvalues --    39.51105 300.04792 333.70553
           X            0.99986   0.01520   0.00635
           Y           -0.01571   0.99582   0.08993
           Z           -0.00496  -0.09002   0.99593
 This molecule is an asymmetric top.
 Rotational symmetry number  1.
 Rotational temperatures (Kelvin)      2.19214     0.28867     0.25955
 Rotational constants (GHZ):          45.67687     6.01484     5.40818
 Zero-point vibrational energy      48943.1 (Joules/Mol)
                                   11.69769 (Kcal/Mol)
 Warning -- explicit consideration of   1 degrees of freedom as
           vibrations may cause significant error
 Vibrational temperatures:    560.44  1041.79  1401.27  1682.48  2092.12
          (Kelvin)           4994.93
 
 Zero-point correction=                           0.018641 (Hartree/Particle)
 Thermal correction to Energy=                    0.021963
 Thermal correction to Enthalpy=                  0.022907
 Thermal correction to Gibbs Free Energy=        -0.007004
 Sum of electronic and zero-point Energies=           -614.575234
 Sum of electronic and thermal Energies=              -614.571913
 Sum of electronic and thermal Enthalpies=            -614.570969
 Sum of electronic and thermal Free Energies=         -614.600880
 
                     E (Thermal)             CV                S
                      KCal/Mol        Cal/Mol-Kelvin    Cal/Mol-Kelvin
 Total                   13.782              8.958             62.953
 Electronic               0.000              0.000              0.000
 Translational            0.889              2.981             38.611
 Rotational               0.889              2.981             22.896
 Vibrational             12.004              2.997              1.446
 Vibration     1          0.757              1.493              1.002
                       Q            Log10(Q)             Ln(Q)
 Total Bot       0.166632D+04          3.221758          7.418373
 Total V=0       0.625499D+12         11.796227         27.161815
 Vib (Bot)       0.328666D-08         -8.483245        -19.533393
 Vib (Bot)    1  0.461055D+00         -0.336247         -0.774238
 Vib (V=0)       0.123374D+01          0.091223          0.210050
 Vib (V=0)    1  0.118013D+01          0.071928          0.165621
 Electronic      0.100000D+01          0.000000          0.000000
 Translational   0.225176D+08          7.352521         16.929806
 Rotational      0.225155D+05          4.352482         10.021960
 ***** Axes restored to original set *****
 -------------------------------------------------------------------
 Center     Atomic                   Forces (Hartrees/Bohr)
 Number     Number              X              Y              Z
 -------------------------------------------------------------------
      1        7           0.000151496    0.000140214    0.000353899
      2       17          -0.000022278    0.000004106   -0.000283172
      3        1          -0.000086473    0.000004366   -0.000021419
      4        9          -0.000042745   -0.000148685   -0.000049309
 -------------------------------------------------------------------
 Cartesian Forces:  Max     0.000353899 RMS     0.000153535
 -----------------------------------------------------------------------------------------------
                       Internal Coordinate Forces (Hartree/Bohr or radian)
  Cent   Atom   N1       Length/X         N2         Alpha/Y        N3         Beta/Z          J
 -----------------------------------------------------------------------------------------------
      1  N 
      2  Cl       1  -0.000283(     1)
      3  H        1  -0.000080(     2)      2   0.000074(     4)
      4  F        1   0.000162(     3)      2   0.000012(     5)      3   0.000008(     6)     0
 -----------------------------------------------------------------------------------------------
 Internal  Forces:  Max     0.000283172 RMS     0.000140643

 GradGradGradGradGradGradGradGradGradGradGradGradGradGradGradGradGradGrad
 Berny optimization.
 Search for a local minimum.
 Step number   1 out of a maximum of    2
 All quantities printed in internal units (Hartrees-Bohrs-Radians)
 Second derivative matrix not updated -- analytic derivatives used.
 The second derivative matrix:
                          B1        B2        B3        A1        A2
           B1           0.21083
           B2          -0.00615   0.42841
           B3           0.03923   0.00128   0.32742
           A1           0.06000   0.00486  -0.02571   0.21722
           A2           0.03529   0.00816   0.02842   0.02494   0.34747
           D1           0.00995   0.00435   0.07500  -0.05569  -0.04925
                          D1
           D1           0.21911
 ITU=  0
     Eigenvalues ---    0.12495   0.17124   0.25446   0.38316   0.38702
     Eigenvalues ---    0.42963
 Angle between quadratic step and forces=  16.62 degrees.
 Linear search not attempted -- first point.
 Variable       Old X    -DE/DX   Delta X   Delta X   Delta X     New X
                                 (Linear)    (Quad)   (Total)
    B1        3.30335  -0.00028   0.00000  -0.00178  -0.00178   3.30157
    B2        1.92668  -0.00008   0.00000  -0.00023  -0.00023   1.92645
    B3        2.64360   0.00016   0.00000   0.00074   0.00074   2.64435
    A1        1.77498   0.00007   0.00000   0.00095   0.00095   1.77593
    A2        1.85250   0.00001   0.00000   0.00011   0.00011   1.85261
    D1        1.82970   0.00001   0.00000   0.00013   0.00013   1.82984
         Item               Value     Threshold  Converged?
 Maximum Force            0.000283     0.000450     YES
 RMS     Force            0.000141     0.000300     YES
 Maximum Displacement     0.001783     0.001800     YES
 RMS     Displacement     0.000887     0.001200     YES
 Predicted change in Energy=-3.584981D-07
 Optimization completed.
    -- Stationary point found.
                       ----------------------------
                       !   Optimized Parameters   !
                       ! (Angstroms and Degrees)  !
 ----------------------                            ----------------------
 !      Name          Value   Derivative information (Atomic Units)     !
 ------------------------------------------------------------------------
 !       B1          1.7481   -DE/DX =   -0.0003                        !
 !       B2          1.0196   -DE/DX =   -0.0001                        !
 !       B3          1.3989   -DE/DX =    0.0002                        !
 !       A1        101.6989   -DE/DX =    0.0001                        !
 !       A2        106.1406   -DE/DX =    0.0                           !
 !       D1        104.8343   -DE/DX =    0.0                           !
 ------------------------------------------------------------------------
 GradGradGradGradGradGradGradGradGradGradGradGradGradGradGradGradGradGrad

 Unable to Open any file for archive entry.
 1\1\GINC-LAPTOP-P4FAIH0F\Freq\RCCSD-FC\CC-pVTZ\Cl1F1H1N1\RKDQL\31-Jan-
 2024\1\\#N CCSD/cc-pVTZ FREQ Geom=Connectivity\\HNFCl\\0,1\N\Cl,1,B1\H
 ,1,B2,2,A1\F,1,B3,2,A2,3,D1,0\\B1=1.74805861\B2=1.01955643\B3=1.398934
 24\A1=101.69894\A2=106.140625\D1=104.8343014\\Version=ES64L-G16RevC.01
 \State=1-A\HF=-613.9172909\MP2=-614.5727302\MP3=-614.5899708\MP4D=-614
 .6048061\MP4DQ=-614.5895533\MP4SDQ=-614.596101\CCSD=-614.593876\RMSD=6
 .698e-09\RMSF=1.535e-04\ZeroPoint=0.0186415\Thermal=0.0219627\ETot=-61
 4.5719133\HTot=-614.5709691\GTot=-614.6008803\Dipole=0.6516517,0.17312
 13,-0.0082328\DipoleDeriv=0.089895,0.0670518,0.1808475,0.1539686,0.449
 7781,0.4576581,0.0501702,0.2614481,0.5841009,-0.0311857,-0.0142413,-0.
 069255,-0.014148,-0.0240763,0.0743782,-0.0009459,-0.08719,-0.4135517,0
 .0969206,-0.0100898,-0.032511,0.046521,0.1889619,-0.0595475,-0.0197181
 ,-0.0492579,0.1513597,-0.1556456,-0.0425457,-0.0793354,-0.1864366,-0.6
 147722,-0.4726947,-0.0294219,-0.1248825,-0.3218194\PG=C01 [X(Cl1F1H1N1
 )]\NImag=0\\0.50327528,0.04268282,0.30059447,-0.09073179,0.02578504,0.
 25983044,-0.02714238,-0.00197814,-0.00443866,0.02028134,-0.00625894,-0
 .02795870,0.03021050,0.00642570,0.02897887,0.04108954,0.01540440,-0.15
 785284,-0.01629152,0.01116282,0.21082792,-0.41256068,-0.00568560,0.091
 15898,0.00503409,0.00242682,-0.01234034,0.41218910,0.05223434,-0.03604
 464,-0.01824087,-0.00292282,0.00225823,0.00526462,0.00536768,0.0616153
 6,0.05947042,-0.00208772,-0.04717343,0.03029109,-0.00185635,-0.0292445
 9,-0.07577117,0.01453198,0.07477650,-0.06356877,-0.03502793,0.00402139
 ,0.00183617,-0.00260181,-0.01248456,-0.00468387,-0.05468995,-0.0139750
 2,0.06642517,-0.08866545,-0.23657627,-0.03776721,-0.00152463,-0.003298
 56,-0.03183811,-0.00211065,-0.02782706,-0.01058570,0.09232857,0.267705
 31,-0.00982470,-0.03909585,-0.05479694,-0.00956369,-0.03951551,-0.0237
 2772,-0.00305078,-0.00156265,0.00164533,0.02244083,0.08019061,0.076865
 53\\-0.00015150,-0.00014021,-0.00035390,0.00002228,-0.00000411,0.00028
 317,0.00008647,-0.00000437,0.00002142,0.00004275,0.00014869,0.00004931
 \\\@
 The archive entry for this job was punched.


 TOM, TOM, THE BURGLAR'S SON
 STOLE A MACHINE AND AWAY HE RUN
 THE JOB WAS NEAT, BUT TOM GOT BEAT
 BY THE TIME HE GOT HOME IT WAS OBSOLETE.
 Job cpu time:       0 days  2 hours 18 minutes 37.6 seconds.
 Elapsed time:       0 days  2 hours 29 minutes 50.4 seconds.
 File lengths (MBytes):  RWF=   2058 Int=      0 D2E=      0 Chk=     40 Scr=      1
 Normal termination of Gaussian 16 at Wed Jan 31 18:10:04 2024.