Entering Gaussian System, Link 0=/home/rkdql/gaussian_c01/g16/g16
 Initial command:
 /home/rkdql/gaussian_c01/g16/l1.exe "/tmp/webmo-1487/57/Gau-2010.inp" -scrdir="/tmp/webmo-1487/57/"
 Entering Link 1 = /home/rkdql/gaussian_c01/g16/l1.exe PID=      2012.
  
 Copyright (c) 1988-2019, Gaussian, Inc.  All Rights Reserved.
  
 This is part of the Gaussian(R) 16 program.  It is based on
 the Gaussian(R) 09 system (copyright 2009, Gaussian, Inc.),
 the Gaussian(R) 03 system (copyright 2003, Gaussian, Inc.),
 the Gaussian(R) 98 system (copyright 1998, Gaussian, Inc.),
 the Gaussian(R) 94 system (copyright 1995, Gaussian, Inc.),
 the Gaussian 92(TM) system (copyright 1992, Gaussian, Inc.),
 the Gaussian 90(TM) system (copyright 1990, Gaussian, Inc.),
 the Gaussian 88(TM) system (copyright 1988, Gaussian, Inc.),
 the Gaussian 86(TM) system (copyright 1986, Carnegie Mellon
 University), and the Gaussian 82(TM) system (copyright 1983,
 Carnegie Mellon University). Gaussian is a federally registered
 trademark of Gaussian, Inc.
  
 This software contains proprietary and confidential information,
 including trade secrets, belonging to Gaussian, Inc.
  
 This software is provided under written license and may be
 used, copied, transmitted, or stored only in accord with that
 written license.
  
 The following legend is applicable only to US Government
 contracts under FAR:
  
                    RESTRICTED RIGHTS LEGEND
  
 Use, reproduction and disclosure by the US Government is
 subject to restrictions as set forth in subparagraphs (a)
 and (c) of the Commercial Computer Software - Restricted
 Rights clause in FAR 52.227-19.
  
 Gaussian, Inc.
 340 Quinnipiac St., Bldg. 40, Wallingford CT 06492
  
  
 ---------------------------------------------------------------
 Warning -- This program may not be used in any manner that
 competes with the business of Gaussian, Inc. or will provide
 assistance to any competitor of Gaussian, Inc.  The licensee
 of this program is prohibited from giving any competitor of
 Gaussian, Inc. access to this program.  By using this program,
 the user acknowledges that Gaussian, Inc. is engaged in the
 business of creating and licensing software in the field of
 computational chemistry and represents and warrants to the
 licensee that it is not a competitor of Gaussian, Inc. and that
 it will not use this program in any manner prohibited above.
 ---------------------------------------------------------------
  

 Cite this work as:
 Gaussian 16, Revision C.01,
 M. J. Frisch, G. W. Trucks, H. B. Schlegel, G. E. Scuseria, 
 M. A. Robb, J. R. Cheeseman, G. Scalmani, V. Barone, 
 G. A. Petersson, H. Nakatsuji, X. Li, M. Caricato, A. V. Marenich, 
 J. Bloino, B. G. Janesko, R. Gomperts, B. Mennucci, H. P. Hratchian, 
 J. V. Ortiz, A. F. Izmaylov, J. L. Sonnenberg, D. Williams-Young, 
 F. Ding, F. Lipparini, F. Egidi, J. Goings, B. Peng, A. Petrone, 
 T. Henderson, D. Ranasinghe, V. G. Zakrzewski, J. Gao, N. Rega, 
 G. Zheng, W. Liang, M. Hada, M. Ehara, K. Toyota, R. Fukuda, 
 J. Hasegawa, M. Ishida, T. Nakajima, Y. Honda, O. Kitao, H. Nakai, 
 T. Vreven, K. Throssell, J. A. Montgomery, Jr., J. E. Peralta, 
 F. Ogliaro, M. J. Bearpark, J. J. Heyd, E. N. Brothers, K. N. Kudin, 
 V. N. Staroverov, T. A. Keith, R. Kobayashi, J. Normand, 
 K. Raghavachari, A. P. Rendell, J. C. Burant, S. S. Iyengar, 
 J. Tomasi, M. Cossi, J. M. Millam, M. Klene, C. Adamo, R. Cammi, 
 J. W. Ochterski, R. L. Martin, K. Morokuma, O. Farkas, 
 J. B. Foresman, and D. J. Fox, Gaussian, Inc., Wallingford CT, 2019.
 
 ******************************************
 Gaussian 16:  ES64L-G16RevC.01  3-Jul-2019
                31-Jan-2024 
 ******************************************
 ------------------------------------
 #N CCSD/cc-pVTZ SP Geom=Connectivity
 ------------------------------------
 1/38=1,57=2,172=1/1;
 2/12=2,17=6,18=5,40=1/2;
 3/5=16,6=1,11=9,25=1,30=1/1,2,3;
 4//1;
 5/5=2,38=5/2;
 8/6=4,9=120000,10=1/1,4;
 9/5=7/13;
 6/7=2,8=2,9=2,10=2/1;
 99/5=1,9=1/99;
 -----------
 reactant_sp
 -----------
 Symbolic Z-matrix:
 Charge =  0 Multiplicity = 1
 N
 Cl                   1    B1
 H                    1    B2       2    A1
 F                    1    B3       2    A2       3    D1       0
       Variables:
  B1                    1.74806                  
  B2                    1.01956                  
  B3                    1.39893                  
  A1                  101.69894                  
  A2                  106.14062                  
  D1                  104.8343                   
 
                          Input orientation:                          
 ---------------------------------------------------------------------
 Center     Atomic      Atomic             Coordinates (Angstroms)
 Number     Number       Type             X           Y           Z
 ---------------------------------------------------------------------
      1          7           0        0.000000    0.000000    0.000000
      2         17           0        0.000000    0.000000    1.748059
      3          1           0        0.998377    0.000000   -0.206735
      4          9           0       -0.344044   -1.299003   -0.388898
 ---------------------------------------------------------------------
                    Distance matrix (angstroms):
                    1          2          3          4
     1  N    0.000000
     2  Cl   1.748059   0.000000
     3  H    1.019556   2.194988   0.000000
     4  F    1.398934   2.524353   1.876882   0.000000
 Stoichiometry    ClFHN
 Framework group  C1[X(ClFHN)]
 Deg. of freedom     6
 Full point group                 C1      NOp   1
 Largest Abelian subgroup         C1      NOp   1
 Largest concise Abelian subgroup C1      NOp   1
                         Standard orientation:                         
 ---------------------------------------------------------------------
 Center     Atomic      Atomic             Coordinates (Angstroms)
 Number     Number       Type             X           Y           Z
 ---------------------------------------------------------------------
      1          7           0        0.533541    0.629911   -0.160694
      2         17           0       -1.036339   -0.119713    0.010331
      3          1           0        0.621240    1.130047    0.723427
      4          9           0        1.473527   -0.389367    0.025090
 ---------------------------------------------------------------------
 Rotational constants (GHZ):          45.6768746           6.0148432           5.4081849
 Standard basis: CC-pVTZ (5D, 7F)
 There are   124 symmetry adapted cartesian basis functions of A   symmetry.
 There are   108 symmetry adapted basis functions of A   symmetry.
   108 basis functions,   215 primitive gaussians,   124 cartesian basis functions
    17 alpha electrons       17 beta electrons
       nuclear repulsion energy       102.1974686356 Hartrees.
 NAtoms=    4 NActive=    4 NUniq=    4 SFac= 1.00D+00 NAtFMM=   60 NAOKFM=F Big=F
 Integral buffers will be    131072 words long.
 Raffenetti 1 integral format.
 Two-electron integral symmetry is turned on.
 One-electron integrals computed using PRISM.
 NBasis=   108 RedAO= T EigKep=  2.02D-03  NBF=   108
 NBsUse=   108 1.00D-06 EigRej= -1.00D+00 NBFU=   108
 ExpMin= 1.03D-01 ExpMax= 4.56D+05 ExpMxC= 1.44D+03 IAcc=3 IRadAn=         5 AccDes= 0.00D+00
 Harris functional with IExCor=  205 and IRadAn=       5 diagonalized for initial guess.
 HarFok:  IExCor=  205 AccDes= 0.00D+00 IRadAn=         5 IDoV= 1 UseB2=F ITyADJ=14
 ICtDFT=  3500011 ScaDFX=  1.000000  1.000000  1.000000  1.000000
 FoFCou: FMM=F IPFlag=           0 FMFlag=      100000 FMFlg1=           0
         NFxFlg=           0 DoJE=T BraDBF=F KetDBF=T FulRan=T
         wScrn=  0.000000 ICntrl=       500 IOpCl=  0 I1Cent=   200000004 NGrid=           0
         NMat0=    1 NMatS0=      1 NMatT0=    0 NMatD0=    1 NMtDS0=    0 NMtDT0=    0
 Petite list used in FoFCou.
 Keep R1 ints in memory in canonical form, NReq=19346284.
 Requested convergence on RMS density matrix=1.00D-08 within 128 cycles.
 Requested convergence on MAX density matrix=1.00D-06.
 Requested convergence on             energy=1.00D-06.
 No special actions if energy rises.
 SCF Done:  E(RHF) =  -613.917290949     A.U. after   13 cycles
            NFock= 13  Conv=0.67D-08     -V/T= 2.0003
 ExpMin= 1.03D-01 ExpMax= 4.56D+05 ExpMxC= 1.44D+03 IAcc=3 IRadAn=         5 AccDes= 0.00D+00
 HarFok:  IExCor=  205 AccDes= 0.00D+00 IRadAn=         5 IDoV=-2 UseB2=F ITyADJ=14
 ICtDFT= 12500011 ScaDFX=  1.000000  1.000000  1.000000  1.000000
 Range of M.O.s used for correlation:     8   108
 NBasis=   108 NAE=    17 NBE=    17 NFC=     7 NFV=     0
 NROrb=    101 NOA=    10 NOB=    10 NVA=    91 NVB=    91
 Semi-Direct transformation.
 ModeAB=           2 MOrb=            10 LenV=     104382943
 LASXX=      4780810 LTotXX=     4780810 LenRXX=     4780810
 LTotAB=     4920665 MaxLAS=     7827500 LenRXY=     7827500
 NonZer=     9561620 LenScr=    15093760 LnRSAI=           0
 LnScr1=           0 LExtra=           0 Total=     27702070
 MaxDsk=          -1 SrtSym=           F ITran=            4
 JobTyp=0 Pass  1:  I=   1 to  10.
 (rs|ai) integrals will be sorted in core.
 SymMOI:  orbitals are not symmetric.
 Spin components of T(2) and E(2):
     alpha-alpha T2 =       0.2305371086D-01 E2=     -0.8263789418D-01
     alpha-beta  T2 =       0.1311912476D+00 E2=     -0.4901634450D+00
     beta-beta   T2 =       0.2305371086D-01 E2=     -0.8263789418D-01
 ANorm=    0.1085033948D+01
 E2 =    -0.6554392333D+00 EUMP2 =    -0.61457273018237D+03
 Keep R2 and R3 ints in memory in canonical form, NReq=36676129.
 CIDS: In Core Option IDoMem=           1.
 Iterations=  50 Convergence= 0.100D-06
 Produce multiple copies of IABC intergrals
 Iteration Nr.   1
 **********************
 DD1Dir will call FoFMem   1 times, MxPair=       110
 NAB=    55 NAA=     0 NBB=     0.
 MP4(R+Q)=  0.15252850D-01
 E3=       -0.17240631D-01        EUMP3=      -0.61458997081D+03
 E4(DQ)=    0.41754131D-03        UMP4(DQ)=   -0.61458955327D+03
 E4(SDQ)=  -0.61301897D-02        UMP4(SDQ)=  -0.61459610100D+03
 DE(Corr)= -0.65712840     E(Corr)=     -614.57441935    
 NORM(A)=   0.10883288D+01
 Iteration Nr.   2
 **********************
 DD1Dir will call FoFMem   1 times, MxPair=       110
 NAB=    55 NAA=     0 NBB=     0.
 DE(Corr)= -0.67471621     E(CORR)=     -614.59200716     Delta=-1.76D-02
 NORM(A)=   0.10950813D+01
 Iteration Nr.   3
 **********************
 DD1Dir will call FoFMem   1 times, MxPair=       110
 NAB=    55 NAA=     0 NBB=     0.
 DE(Corr)= -0.67490947     E(CORR)=     -614.59220042     Delta=-1.93D-04
 NORM(A)=   0.10967219D+01
 Iteration Nr.   4
 **********************
 DD1Dir will call FoFMem   1 times, MxPair=       110
 NAB=    55 NAA=     0 NBB=     0.
 DE(Corr)= -0.67637790     E(CORR)=     -614.59366885     Delta=-1.47D-03
 NORM(A)=   0.10972369D+01
 Iteration Nr.   5
 **********************
 DD1Dir will call FoFMem   1 times, MxPair=       110
 NAB=    55 NAA=     0 NBB=     0.
 DE(Corr)= -0.67654836     E(CORR)=     -614.59383930     Delta=-1.70D-04
 NORM(A)=   0.10974770D+01
 Iteration Nr.   6
 **********************
 DD1Dir will call FoFMem   1 times, MxPair=       110
 NAB=    55 NAA=     0 NBB=     0.
 DE(Corr)= -0.67657827     E(CORR)=     -614.59386922     Delta=-2.99D-05
 NORM(A)=   0.10975344D+01
 Iteration Nr.   7
 **********************
 DD1Dir will call FoFMem   1 times, MxPair=       110
 NAB=    55 NAA=     0 NBB=     0.
 DE(Corr)= -0.67658469     E(CORR)=     -614.59387564     Delta=-6.42D-06
 NORM(A)=   0.10975480D+01
 Iteration Nr.   8
 **********************
 DD1Dir will call FoFMem   1 times, MxPair=       110
 NAB=    55 NAA=     0 NBB=     0.
 DE(Corr)= -0.67658147     E(CORR)=     -614.59387242     Delta= 3.22D-06
 NORM(A)=   0.10975575D+01
 Iteration Nr.   9
 **********************
 DD1Dir will call FoFMem   1 times, MxPair=       110
 NAB=    55 NAA=     0 NBB=     0.
 DE(Corr)= -0.67658281     E(CORR)=     -614.59387376     Delta=-1.34D-06
 NORM(A)=   0.10975587D+01
 Iteration Nr.  10
 **********************
 DD1Dir will call FoFMem   1 times, MxPair=       110
 NAB=    55 NAA=     0 NBB=     0.
 DE(Corr)= -0.67658313     E(CORR)=     -614.59387408     Delta=-3.22D-07
 NORM(A)=   0.10975605D+01
 Iteration Nr.  11
 **********************
 DD1Dir will call FoFMem   1 times, MxPair=       110
 NAB=    55 NAA=     0 NBB=     0.
 DE(Corr)= -0.67658457     E(CORR)=     -614.59387552     Delta=-1.44D-06
 NORM(A)=   0.10975613D+01
 Iteration Nr.  12
 **********************
 DD1Dir will call FoFMem   1 times, MxPair=       110
 NAB=    55 NAA=     0 NBB=     0.
 DE(Corr)= -0.67658462     E(CORR)=     -614.59387557     Delta=-5.20D-08
 NORM(A)=   0.10975617D+01
 Wavefunction amplitudes converged. E(Corr)=     -614.59387557    
 Largest amplitude= 5.05D-02
 Discarding MO integrals.

 **********************************************************************

            Population analysis using the SCF Density.

 **********************************************************************

 Orbital symmetries:
       Occupied  (A) (A) (A) (A) (A) (A) (A) (A) (A) (A) (A) (A)
                 (A) (A) (A) (A) (A)
       Virtual   (A) (A) (A) (A) (A) (A) (A) (A) (A) (A) (A) (A)
                 (A) (A) (A) (A) (A) (A) (A) (A) (A) (A) (A) (A)
                 (A) (A) (A) (A) (A) (A) (A) (A) (A) (A) (A) (A)
                 (A) (A) (A) (A) (A) (A) (A) (A) (A) (A) (A) (A)
                 (A) (A) (A) (A) (A) (A) (A) (A) (A) (A) (A) (A)
                 (A) (A) (A) (A) (A) (A) (A) (A) (A) (A) (A) (A)
                 (A) (A) (A) (A) (A) (A) (A) (A) (A) (A) (A) (A)
                 (A) (A) (A) (A) (A) (A) (A)
 The electronic state is 1-A.
 Alpha  occ. eigenvalues -- -104.88108 -26.33448 -15.73636 -10.60379  -8.07069
 Alpha  occ. eigenvalues --   -8.06820  -8.06795  -1.64428  -1.23511  -1.02696
 Alpha  occ. eigenvalues --   -0.76894  -0.72071  -0.70313  -0.60413  -0.53677
 Alpha  occ. eigenvalues --   -0.48802  -0.44579
 Alpha virt. eigenvalues --    0.10504   0.16098   0.23278   0.45164   0.47960
 Alpha virt. eigenvalues --    0.48291   0.51749   0.54869   0.57869   0.59871
 Alpha virt. eigenvalues --    0.61993   0.62714   0.67618   0.69355   0.76063
 Alpha virt. eigenvalues --    0.83390   0.89516   0.99275   1.04092   1.07861
 Alpha virt. eigenvalues --    1.11160   1.24496   1.41509   1.46281   1.54315
 Alpha virt. eigenvalues --    1.60644   1.79908   1.84056   1.91279   2.16136
 Alpha virt. eigenvalues --    2.18809   2.22712   2.23491   2.24634   2.29476
 Alpha virt. eigenvalues --    2.32941   2.35193   2.38627   2.39288   2.40185
 Alpha virt. eigenvalues --    2.50797   2.54758   2.55352   2.57511   2.62379
 Alpha virt. eigenvalues --    2.66892   2.73840   2.82441   2.96168   3.01614
 Alpha virt. eigenvalues --    3.42436   3.46188   3.57407   3.74400   3.78349
 Alpha virt. eigenvalues --    3.92653   4.13070   4.14889   4.18941   4.26725
 Alpha virt. eigenvalues --    4.38328   4.53224   4.57747   4.62668   4.67621
 Alpha virt. eigenvalues --    5.03963   5.07545   5.10277   5.20430   5.35624
 Alpha virt. eigenvalues --    5.41891   5.70102   5.84178   5.88940   5.95648
 Alpha virt. eigenvalues --    6.10276   6.47415   7.37854   7.38396   7.43064
 Alpha virt. eigenvalues --    7.46283   7.73449   7.77145   8.01340   8.87559
 Alpha virt. eigenvalues --    8.89224   9.19599   9.25964   9.41642  10.63501
 Alpha virt. eigenvalues --   11.64136
          Condensed to atoms (all electrons):
               1          2          3          4
     1  N    6.261570   0.164009   0.360126   0.123011
     2  Cl   0.164009  16.926994  -0.029352  -0.040005
     3  H    0.360126  -0.029352   0.532829  -0.024041
     4  F    0.123011  -0.040005  -0.024041   9.171112
 Mulliken charges:
               1
     1  N    0.091284
     2  Cl  -0.021646
     3  H    0.160438
     4  F   -0.230077
 Sum of Mulliken charges =  -0.00000
 Mulliken charges with hydrogens summed into heavy atoms:
               1
     1  N    0.251722
     2  Cl  -0.021646
     4  F   -0.230077
 Electronic spatial extent (au):  <R**2>=            217.8836
 Charge=              0.0000 electrons
 Dipole moment (field-independent basis, Debye):
    X=             -0.4141    Y=              1.2389    Z=              1.3613  Tot=              1.8867
 Quadrupole moment (field-independent basis, Debye-Ang):
   XX=            -23.9913   YY=            -22.2788   ZZ=            -23.1906
   XY=              1.6395   XZ=              0.9183   YZ=              1.9204
 Traceless Quadrupole moment (field-independent basis, Debye-Ang):
   XX=             -0.8378   YY=              0.8748   ZZ=             -0.0370
   XY=              1.6395   XZ=              0.9183   YZ=              1.9204
 Octapole moment (field-independent basis, Debye-Ang**2):
  XXX=              2.6359  YYY=             -0.3580  ZZZ=              1.8717  XYY=              3.0640
  XXY=             -1.1470  XXZ=              1.0691  XZZ=              3.6045  YZZ=              0.0589
  YYZ=              2.5456  XYZ=              1.3684
 Hexadecapole moment (field-independent basis, Debye-Ang**3):
 XXXX=           -168.9491 YYYY=            -41.9573 ZZZZ=            -24.3596 XXXY=              2.0840
 XXXZ=              0.4105 YYYX=             -2.1940 YYYZ=              3.4430 ZZZX=              1.5060
 ZZZY=              2.2985 XXYY=            -35.1831 XXZZ=            -33.7879 YYZZ=            -10.7615
 XXYZ=              0.8339 YYXZ=              1.7123 ZZXY=             -0.5954
 N-N= 1.021974686356D+02 E-N=-1.666064012702D+03  KE= 6.137072636762D+02
 Unable to Open any file for archive entry.
 1\1\GINC-LAPTOP-P4FAIH0F\SP\RCCSD-FC\CC-pVTZ\Cl1F1H1N1\RKDQL\31-Jan-20
 24\0\\#N CCSD/cc-pVTZ SP Geom=Connectivity\\reactant_sp\\0,1\N\Cl,1,1.
 748058611\H,1,1.019556427,2,101.69894\F,1,1.398934243,2,106.140625,3,1
 04.8343014,0\\Version=ES64L-G16RevC.01\State=1-A\HF=-613.9172909\MP2=-
 614.5727302\MP3=-614.5899708\MP4D=-614.6048061\MP4DQ=-614.5895533\MP4S
 DQ=-614.596101\CCSD=-614.5938756\RMSD=6.698e-09\PG=C01 [X(Cl1F1H1N1)]\
 \@
 The archive entry for this job was punched.


 A COMPUTER IS LIKE A HORSE, IT WILL SENSE WEAKNESS.
     -- GREG WETTSTEIN
 Job cpu time:       0 days  0 hours  1 minutes 31.4 seconds.
 Elapsed time:       0 days  0 hours  1 minutes 37.0 seconds.
 File lengths (MBytes):  RWF=    455 Int=      0 D2E=      0 Chk=      2 Scr=      1
 Normal termination of Gaussian 16 at Wed Jan 31 15:32:25 2024.