 Entering Gaussian System, Link 0=/home/rkdql/gaussian_c01/g16/g16
 Initial command:
 /home/rkdql/gaussian_c01/g16/l1.exe "/tmp/webmo-1487/62/Gau-2829.inp" -scrdir="/tmp/webmo-1487/62/"
 Entering Link 1 = /home/rkdql/gaussian_c01/g16/l1.exe PID=      2831.
  
 Copyright (c) 1988-2019, Gaussian, Inc.  All Rights Reserved.
  
 This is part of the Gaussian(R) 16 program.  It is based on
 the Gaussian(R) 09 system (copyright 2009, Gaussian, Inc.),
 the Gaussian(R) 03 system (copyright 2003, Gaussian, Inc.),
 the Gaussian(R) 98 system (copyright 1998, Gaussian, Inc.),
 the Gaussian(R) 94 system (copyright 1995, Gaussian, Inc.),
 the Gaussian 92(TM) system (copyright 1992, Gaussian, Inc.),
 the Gaussian 90(TM) system (copyright 1990, Gaussian, Inc.),
 the Gaussian 88(TM) system (copyright 1988, Gaussian, Inc.),
 the Gaussian 86(TM) system (copyright 1986, Carnegie Mellon
 University), and the Gaussian 82(TM) system (copyright 1983,
 Carnegie Mellon University). Gaussian is a federally registered
 trademark of Gaussian, Inc.
  
 This software contains proprietary and confidential information,
 including trade secrets, belonging to Gaussian, Inc.
  
 This software is provided under written license and may be
 used, copied, transmitted, or stored only in accord with that
 written license.
  
 The following legend is applicable only to US Government
 contracts under FAR:
  
                    RESTRICTED RIGHTS LEGEND
  
 Use, reproduction and disclosure by the US Government is
 subject to restrictions as set forth in subparagraphs (a)
 and (c) of the Commercial Computer Software - Restricted
 Rights clause in FAR 52.227-19.
  
 Gaussian, Inc.
 340 Quinnipiac St., Bldg. 40, Wallingford CT 06492
  
  
 ---------------------------------------------------------------
 Warning -- This program may not be used in any manner that
 competes with the business of Gaussian, Inc. or will provide
 assistance to any competitor of Gaussian, Inc.  The licensee
 of this program is prohibited from giving any competitor of
 Gaussian, Inc. access to this program.  By using this program,
 the user acknowledges that Gaussian, Inc. is engaged in the
 business of creating and licensing software in the field of
 computational chemistry and represents and warrants to the
 licensee that it is not a competitor of Gaussian, Inc. and that
 it will not use this program in any manner prohibited above.
 ---------------------------------------------------------------
  

 Cite this work as:
 Gaussian 16, Revision C.01,
 M. J. Frisch, G. W. Trucks, H. B. Schlegel, G. E. Scuseria, 
 M. A. Robb, J. R. Cheeseman, G. Scalmani, V. Barone, 
 G. A. Petersson, H. Nakatsuji, X. Li, M. Caricato, A. V. Marenich, 
 J. Bloino, B. G. Janesko, R. Gomperts, B. Mennucci, H. P. Hratchian, 
 J. V. Ortiz, A. F. Izmaylov, J. L. Sonnenberg, D. Williams-Young, 
 F. Ding, F. Lipparini, F. Egidi, J. Goings, B. Peng, A. Petrone, 
 T. Henderson, D. Ranasinghe, V. G. Zakrzewski, J. Gao, N. Rega, 
 G. Zheng, W. Liang, M. Hada, M. Ehara, K. Toyota, R. Fukuda, 
 J. Hasegawa, M. Ishida, T. Nakajima, Y. Honda, O. Kitao, H. Nakai, 
 T. Vreven, K. Throssell, J. A. Montgomery, Jr., J. E. Peralta, 
 F. Ogliaro, M. J. Bearpark, J. J. Heyd, E. N. Brothers, K. N. Kudin, 
 V. N. Staroverov, T. A. Keith, R. Kobayashi, J. Normand, 
 K. Raghavachari, A. P. Rendell, J. C. Burant, S. S. Iyengar, 
 J. Tomasi, M. Cossi, J. M. Millam, M. Klene, C. Adamo, R. Cammi, 
 J. W. Ochterski, R. L. Martin, K. Morokuma, O. Farkas, 
 J. B. Foresman, and D. J. Fox, Gaussian, Inc., Wallingford CT, 2019.
 
 ******************************************
 Gaussian 16:  ES64L-G16RevC.01  3-Jul-2019
                31-Jan-2024 
 ******************************************
 --------------------------------------
 #N CCSD/cc-pVTZ FREQ Geom=Connectivity
 --------------------------------------
 1/10=4,30=1,38=11,57=2/1,6,3;
 2/12=2,17=6,18=5,40=1/2;
 3/5=16,6=1,11=9,25=1,30=1,71=1/1,2,3;
 4/69=2/1;
 5/5=2,38=5,98=1/2;
 8/6=4,9=120000,10=1/1,4;
 9/5=7,15=1/13;
 11/28=-8,29=200,42=3/11;
 10/5=6/2;
 6/7=2,8=2,9=2,10=2,22=-1/1;
 7/12=7/1,2,3,16;
 1/38=10/6(3);
 7/8=1,25=1,44=-1/16;
 1/10=4,30=1,38=10/3;
 99//99;
 3/5=16,6=1,11=9,25=1,30=1,71=1/1,2,3;
 4/5=5,16=3,69=2/1;
 5/5=2,38=5,98=1/2;
 8/6=4,9=120000,10=1/1,4;
 9/5=7,15=1/13;
 11/28=-8,29=200,42=3/11;
 10/5=6/2;
 6/7=2,8=2,9=2,10=2,22=-1/1;
 7/7=1,12=7/1,2,3,16;
 1/38=10/6(-9);
 7/8=1,25=1,44=-1/16;
 1/10=4,30=1,38=10/3;
 99//99;
 --
 ts
 --
 Symbolic Z-matrix:
 Charge =  0 Multiplicity = 1
 N
 Cl                   1    B1
 H                    1    B2       2    A1
 F                    1    B3       2    A2       3    D1       0
       Variables:
  B1                    1.65441                  
  B2                    0.99587                  
  B3                    1.36652                  
  A1                  127.31676                  
  A2                  116.4251                   
  D1                  179.98755                  
 
 Numerical evaluation of force-constants.
 Nuclear step= 0.001000 Angstroms, electric field step= 0.000333 atomic units, NStep=1.

 GradGradGradGradGradGradGradGradGradGradGradGradGradGradGradGradGradGrad
 Berny optimization.
 Initialization pass.
                       ----------------------------
                       !    Initial Parameters    !
                       ! (Angstroms and Degrees)  !
 ----------------------                            ----------------------
 !      Name          Value   Derivative information (Atomic Units)     !
 ------------------------------------------------------------------------
 !       B1          1.6544   calculate D2E/DX2 analytically            !
 !       B2          0.9959   calculate D2E/DX2 analytically            !
 !       B3          1.3665   calculate D2E/DX2 analytically            !
 !       A1        127.3168   calculate D2E/DX2 analytically            !
 !       A2        116.4251   calculate D2E/DX2 analytically            !
 !       D1        179.9876   calculate D2E/DX2 analytically            !
 ------------------------------------------------------------------------
 Trust Radius=3.00D-01 FncErr=1.00D-07 GrdErr=1.00D-07 EigMax=2.50D+02 EigMin=1.00D-04
 Number of steps in this run=      2 maximum allowed number of steps=      2.
 GradGradGradGradGradGradGradGradGradGradGradGradGradGradGradGradGradGrad

                          Input orientation:                          
 ---------------------------------------------------------------------
 Center     Atomic      Atomic             Coordinates (Angstroms)
 Number     Number       Type             X           Y           Z
 ---------------------------------------------------------------------
      1          7           0        0.000000    0.000000    0.000000
      2         17           0        0.000000    0.000000    1.654414
      3          1           0        0.792010    0.000000   -0.603716
      4          9           0       -1.223740   -0.000266   -0.608138
 ---------------------------------------------------------------------
                    Distance matrix (angstroms):
                    1          2          3          4
     1  N    0.000000
     2  Cl   1.654414   0.000000
     3  H    0.995868   2.392997   0.000000
     4  F    1.366518   2.572291   2.015755   0.000000
 Stoichiometry    ClFHN
 Framework group  C1[X(ClFHN)]
 Deg. of freedom     6
 Full point group                 C1      NOp   1
 Largest Abelian subgroup         C1      NOp   1
 Largest concise Abelian subgroup C1      NOp   1
                         Standard orientation:                         
 ---------------------------------------------------------------------
 Center     Atomic      Atomic             Coordinates (Angstroms)
 Number     Number       Type             X           Y           Z
 ---------------------------------------------------------------------
      1          7           0        0.479876    0.529735   -0.000031
      2         17           0       -1.043534   -0.115485    0.000003
      3          1           0        0.726904    1.494479    0.000096
      4          9           0        1.517116   -0.359930    0.000007
 ---------------------------------------------------------------------
 Rotational constants (GHZ):          56.0102714           5.9043992           5.3413351
 Standard basis: CC-pVTZ (5D, 7F)
 There are   124 symmetry adapted cartesian basis functions of A   symmetry.
 There are   108 symmetry adapted basis functions of A   symmetry.
   108 basis functions,   215 primitive gaussians,   124 cartesian basis functions
    17 alpha electrons       17 beta electrons
       nuclear repulsion energy       103.7765944877 Hartrees.
 NAtoms=    4 NActive=    4 NUniq=    4 SFac= 1.00D+00 NAtFMM=   60 NAOKFM=F Big=F
 Integral buffers will be    131072 words long.
 Raffenetti 1 integral format.
 Two-electron integral symmetry is turned on.
 One-electron integrals computed using PRISM.
 NBasis=   108 RedAO= T EigKep=  2.32D-03  NBF=   108
 NBsUse=   108 1.00D-06 EigRej= -1.00D+00 NBFU=   108
 ExpMin= 1.03D-01 ExpMax= 4.56D+05 ExpMxC= 1.44D+03 IAcc=3 IRadAn=         5 AccDes= 0.00D+00
 Harris functional with IExCor=  205 and IRadAn=       5 diagonalized for initial guess.
 HarFok:  IExCor=  205 AccDes= 0.00D+00 IRadAn=         5 IDoV= 1 UseB2=F ITyADJ=14
 ICtDFT=  3500011 ScaDFX=  1.000000  1.000000  1.000000  1.000000
 FoFCou: FMM=F IPFlag=           0 FMFlag=      100000 FMFlg1=           0
         NFxFlg=           0 DoJE=T BraDBF=F KetDBF=T FulRan=T
         wScrn=  0.000000 ICntrl=       500 IOpCl=  0 I1Cent=   200000004 NGrid=           0
         NMat0=    1 NMatS0=      1 NMatT0=    0 NMatD0=    1 NMtDS0=    0 NMtDT0=    0
 Petite list used in FoFCou.
 Keep R1 ints in memory in canonical form, NReq=19346340.
 Requested convergence on RMS density matrix=1.00D-08 within 128 cycles.
 Requested convergence on MAX density matrix=1.00D-06.
 Requested convergence on             energy=1.00D-06.
 No special actions if energy rises.
 SCF Done:  E(RHF) =  -613.884697817     A.U. after   12 cycles
            NFock= 12  Conv=0.68D-08     -V/T= 2.0003
 ExpMin= 1.03D-01 ExpMax= 4.56D+05 ExpMxC= 1.44D+03 IAcc=3 IRadAn=         5 AccDes= 0.00D+00
 HarFok:  IExCor=  205 AccDes= 0.00D+00 IRadAn=         5 IDoV=-2 UseB2=F ITyADJ=14
 ICtDFT= 12500011 ScaDFX=  1.000000  1.000000  1.000000  1.000000
 Range of M.O.s used for correlation:     8   108
 NBasis=   108 NAE=    17 NBE=    17 NFC=     7 NFV=     0
 NROrb=    101 NOA=    10 NOB=    10 NVA=    91 NVB=    91
 Semi-Direct transformation.
 ModeAB=           2 MOrb=            10 LenV=     104382943
 LASXX=      4780810 LTotXX=     4780810 LenRXX=     4780810
 LTotAB=     4920665 MaxLAS=     7827500 LenRXY=     7827500
 NonZer=     9561620 LenScr=    15093760 LnRSAI=           0
 LnScr1=           0 LExtra=           0 Total=     27702070
 MaxDsk=          -1 SrtSym=           F ITran=            4
 JobTyp=0 Pass  1:  I=   1 to  10.
 (rs|ai) integrals will be sorted in core.
 SymMOI:  orbitals are not symmetric.
 Spin components of T(2) and E(2):
     alpha-alpha T2 =       0.2228405454D-01 E2=     -0.8236189123D-01
     alpha-beta  T2 =       0.1247417798D+00 E2=     -0.4839888921D+00
     beta-beta   T2 =       0.2228405454D-01 E2=     -0.8236189123D-01
 ANorm=    0.1081346332D+01
 E2 =    -0.6487126745D+00 EUMP2 =    -0.61453341049143D+03
 Keep R2 and R3 ints in memory in canonical form, NReq=36677095.
 CIDS: In Core Option IDoMem=           1.
 Iterations=  50 Convergence= 0.100D-07
 Produce multiple copies of IABC intergrals
 Iteration Nr.   1
 **********************
 DD1Dir will call FoFMem   1 times, MxPair=       110
 NAB=    55 NAA=     0 NBB=     0.
 MP4(R+Q)=  0.14089009D-01
 E3=       -0.18657162D-01        EUMP3=      -0.61455206765D+03
 E4(DQ)=    0.42821351D-03        UMP4(DQ)=   -0.61455163944D+03
 E4(SDQ)=  -0.49186558D-02        UMP4(SDQ)=  -0.61455698631D+03
 DE(Corr)= -0.65311306     E(Corr)=     -614.53781088    
 NORM(A)=   0.10849475D+01
 Iteration Nr.   2
 **********************
 DD1Dir will call FoFMem   1 times, MxPair=       110
 NAB=    55 NAA=     0 NBB=     0.
 DE(Corr)= -0.66856266     E(CORR)=     -614.55326047     Delta=-1.54D-02
 NORM(A)=   0.10908509D+01
 Iteration Nr.   3
 **********************
 DD1Dir will call FoFMem   1 times, MxPair=       110
 NAB=    55 NAA=     0 NBB=     0.
 DE(Corr)= -0.66913885     E(CORR)=     -614.55383667     Delta=-5.76D-04
 NORM(A)=   0.10920122D+01
 Iteration Nr.   4
 **********************
 DD1Dir will call FoFMem   1 times, MxPair=       110
 NAB=    55 NAA=     0 NBB=     0.
 DE(Corr)= -0.67024367     E(CORR)=     -614.55494148     Delta=-1.10D-03
 NORM(A)=   0.10923222D+01
 Iteration Nr.   5
 **********************
 DD1Dir will call FoFMem   1 times, MxPair=       110
 NAB=    55 NAA=     0 NBB=     0.
 DE(Corr)= -0.67034867     E(CORR)=     -614.55504648     Delta=-1.05D-04
 NORM(A)=   0.10924292D+01
 Iteration Nr.   6
 **********************
 DD1Dir will call FoFMem   1 times, MxPair=       110
 NAB=    55 NAA=     0 NBB=     0.
 DE(Corr)= -0.67036286     E(CORR)=     -614.55506068     Delta=-1.42D-05
 NORM(A)=   0.10924430D+01
 Iteration Nr.   7
 **********************
 DD1Dir will call FoFMem   1 times, MxPair=       110
 NAB=    55 NAA=     0 NBB=     0.
 DE(Corr)= -0.67036413     E(CORR)=     -614.55506195     Delta=-1.27D-06
 NORM(A)=   0.10924445D+01
 Iteration Nr.   8
 **********************
 DD1Dir will call FoFMem   1 times, MxPair=       110
 NAB=    55 NAA=     0 NBB=     0.
 DE(Corr)= -0.67036299     E(CORR)=     -614.55506080     Delta= 1.14D-06
 NORM(A)=   0.10924474D+01
 Iteration Nr.   9
 **********************
 DD1Dir will call FoFMem   1 times, MxPair=       110
 NAB=    55 NAA=     0 NBB=     0.
 DE(Corr)= -0.67036304     E(CORR)=     -614.55506086     Delta=-5.19D-08
 NORM(A)=   0.10924478D+01
 Iteration Nr.  10
 **********************
 DD1Dir will call FoFMem   1 times, MxPair=       110
 NAB=    55 NAA=     0 NBB=     0.
 DE(Corr)= -0.67036339     E(CORR)=     -614.55506121     Delta=-3.56D-07
 NORM(A)=   0.10924482D+01
 Iteration Nr.  11
 **********************
 DD1Dir will call FoFMem   1 times, MxPair=       110
 NAB=    55 NAA=     0 NBB=     0.
 DE(Corr)= -0.67036357     E(CORR)=     -614.55506138     Delta=-1.72D-07
 NORM(A)=   0.10924484D+01
 Iteration Nr.  12
 **********************
 DD1Dir will call FoFMem   1 times, MxPair=       110
 NAB=    55 NAA=     0 NBB=     0.
 DE(Corr)= -0.67036365     E(CORR)=     -614.55506146     Delta=-7.96D-08
 NORM(A)=   0.10924485D+01
 Iteration Nr.  13
 **********************
 DD1Dir will call FoFMem   1 times, MxPair=       110
 NAB=    55 NAA=     0 NBB=     0.
 DE(Corr)= -0.67036368     E(CORR)=     -614.55506150     Delta=-3.40D-08
 NORM(A)=   0.10924485D+01
 Iteration Nr.  14
 **********************
 DD1Dir will call FoFMem   1 times, MxPair=       110
 NAB=    55 NAA=     0 NBB=     0.
 DE(Corr)= -0.67036369     E(CORR)=     -614.55506150     Delta=-6.99D-09
 NORM(A)=   0.10924485D+01
 Wavefunction amplitudes converged. E(Corr)=     -614.55506150    
 Largest amplitude= 3.56D-02

 Z-amplitude iterations

 Iteration Nr.   1
 **********************
 DD1Dir will call FoFMem   1 times, MxPair=       110
 NAB=    55 NAA=     0 NBB=     0.
 DE(Z)= -0.65245097     E(Z)=     -614.53714878     Delta= 1.79D-02
 NORM(A)=   0.10924456D+01
 Iteration Nr.   2
 **********************
 DD1Dir will call FoFMem   1 times, MxPair=       110
 NAB=    55 NAA=     0 NBB=     0.
 DE(Z)= -0.65245012     E(Z)=     -614.53714794     Delta= 8.49D-07
 NORM(A)=   0.10924384D+01
 Iteration Nr.   3
 **********************
 DD1Dir will call FoFMem   1 times, MxPair=       110
 NAB=    55 NAA=     0 NBB=     0.
 DE(Z)= -0.65244864     E(Z)=     -614.53714646     Delta= 1.48D-06
 NORM(A)=   0.10924435D+01
 Iteration Nr.   4
 **********************
 DD1Dir will call FoFMem   1 times, MxPair=       110
 NAB=    55 NAA=     0 NBB=     0.
 DE(Z)= -0.65244975     E(Z)=     -614.53714756     Delta=-1.11D-06
 NORM(A)=   0.10924143D+01
 Iteration Nr.   5
 **********************
 DD1Dir will call FoFMem   1 times, MxPair=       110
 NAB=    55 NAA=     0 NBB=     0.
 DE(Z)= -0.65244276     E(Z)=     -614.53714058     Delta= 6.99D-06
 NORM(A)=   0.10858209D+01
 Iteration Nr.   6
 **********************
 DD1Dir will call FoFMem   1 times, MxPair=       110
 NAB=    55 NAA=     0 NBB=     0.
 DE(Z)= -0.65078729     E(Z)=     -614.53548511     Delta= 1.66D-03
 NORM(A)=   0.10858278D+01
 Iteration Nr.   7
 **********************
 DD1Dir will call FoFMem   1 times, MxPair=       110
 NAB=    55 NAA=     0 NBB=     0.
 DE(Z)= -0.65078950     E(Z)=     -614.53548732     Delta=-2.21D-06
 NORM(A)=   0.10858288D+01
 Iteration Nr.   8
 **********************
 DD1Dir will call FoFMem   1 times, MxPair=       110
 NAB=    55 NAA=     0 NBB=     0.
 DE(Z)= -0.65078985     E(Z)=     -614.53548767     Delta=-3.52D-07
 NORM(A)=   0.10858288D+01
 Iteration Nr.   9
 **********************
 DD1Dir will call FoFMem   1 times, MxPair=       110
 NAB=    55 NAA=     0 NBB=     0.
 DE(Z)= -0.65078980     E(Z)=     -614.53548762     Delta= 4.98D-08
 NORM(A)=   0.10858285D+01
 Iteration Nr.  10
 **********************
 DD1Dir will call FoFMem   1 times, MxPair=       110
 NAB=    55 NAA=     0 NBB=     0.
 DE(Z)= -0.65078977     E(Z)=     -614.53548759     Delta= 3.38D-08
 NORM(A)=   0.10858283D+01
 Iteration Nr.  11
 **********************
 DD1Dir will call FoFMem   1 times, MxPair=       110
 NAB=    55 NAA=     0 NBB=     0.
 DE(Z)= -0.65078969     E(Z)=     -614.53548751     Delta= 7.63D-08
 NORM(A)=   0.10858283D+01
 Iteration Nr.  12
 **********************
 DD1Dir will call FoFMem   1 times, MxPair=       110
 NAB=    55 NAA=     0 NBB=     0.
 DE(Z)= -0.65078968     E(Z)=     -614.53548750     Delta= 9.07D-09
 NORM(A)=   0.10858283D+01
 Z-amplitudes converged.
 Discarding MO integrals.
          IDoAtm=1111
          Differentiating once with respect to electric field.
                with respect to dipole field.
          Differentiating once with respect to nuclear coordinates.
 Keep R1 ints in memory in canonical form, NReq=19347910.
          There are     1 degrees of freedom in the 1st order CPHF.  IDoFFX=0 NUNeed=     1.
 LinEq1:  Iter=  0 NonCon=     1 RMS=2.76D-03 Max=3.10D-02 NDo=     1
 AX will form     1 AO Fock derivatives at one time.
 LinEq1:  Iter=  1 NonCon=     1 RMS=8.92D-04 Max=1.01D-02 NDo=     1
 LinEq1:  Iter=  2 NonCon=     1 RMS=2.76D-04 Max=5.39D-03 NDo=     1
 LinEq1:  Iter=  3 NonCon=     1 RMS=9.83D-05 Max=1.38D-03 NDo=     1
 LinEq1:  Iter=  4 NonCon=     1 RMS=2.76D-05 Max=3.64D-04 NDo=     1
 LinEq1:  Iter=  5 NonCon=     1 RMS=8.31D-06 Max=8.37D-05 NDo=     1
 LinEq1:  Iter=  6 NonCon=     1 RMS=2.05D-06 Max=2.11D-05 NDo=     1
 LinEq1:  Iter=  7 NonCon=     1 RMS=5.50D-07 Max=4.68D-06 NDo=     1
 LinEq1:  Iter=  8 NonCon=     1 RMS=1.32D-07 Max=2.16D-06 NDo=     1
 LinEq1:  Iter=  9 NonCon=     1 RMS=2.46D-08 Max=3.54D-07 NDo=     1
 LinEq1:  Iter= 10 NonCon=     1 RMS=6.04D-09 Max=8.06D-08 NDo=     1
 LinEq1:  Iter= 11 NonCon=     1 RMS=1.12D-09 Max=1.08D-08 NDo=     1
 LinEq1:  Iter= 12 NonCon=     1 RMS=2.23D-10 Max=2.38D-09 NDo=     1
 LinEq1:  Iter= 13 NonCon=     0 RMS=4.66D-11 Max=4.12D-10 NDo=     1
 Linear equations converged to 1.000D-10 1.000D-09 after    13 iterations.
 End of Minotr F.D. properties file   721 does not exist.
 End of Minotr F.D. properties file   722 does not exist.
 End of Minotr F.D. properties file   788 does not exist.

 **********************************************************************

            Population analysis using the CC Density.

 **********************************************************************

 Orbital symmetries:
       Occupied  (A) (A) (A) (A) (A) (A) (A) (A) (A) (A) (A) (A)
                 (A) (A) (A) (A) (A)
       Virtual   (A) (A) (A) (A) (A) (A) (A) (A) (A) (A) (A) (A)
                 (A) (A) (A) (A) (A) (A) (A) (A) (A) (A) (A) (A)
                 (A) (A) (A) (A) (A) (A) (A) (A) (A) (A) (A) (A)
                 (A) (A) (A) (A) (A) (A) (A) (A) (A) (A) (A) (A)
                 (A) (A) (A) (A) (A) (A) (A) (A) (A) (A) (A) (A)
                 (A) (A) (A) (A) (A) (A) (A) (A) (A) (A) (A) (A)
                 (A) (A) (A) (A) (A) (A) (A) (A) (A) (A) (A) (A)
                 (A) (A) (A) (A) (A) (A) (A)
 The electronic state is 1-A.
 Alpha  occ. eigenvalues -- -104.89116 -26.33499 -15.67491 -10.61222  -8.07950
 Alpha  occ. eigenvalues --   -8.07678  -8.07621  -1.64305  -1.24033  -1.01506
 Alpha  occ. eigenvalues --   -0.76972  -0.72388  -0.71288  -0.61191  -0.55063
 Alpha  occ. eigenvalues --   -0.49311  -0.38323
 Alpha virt. eigenvalues --    0.11324   0.18253   0.26747   0.45792   0.47120
 Alpha virt. eigenvalues --    0.48222   0.51320   0.58697   0.62331   0.62714
 Alpha virt. eigenvalues --    0.62831   0.63357   0.68441   0.70099   0.82712
 Alpha virt. eigenvalues --    0.87028   0.92500   1.01065   1.05792   1.08244
 Alpha virt. eigenvalues --    1.12637   1.22070   1.39210   1.43935   1.54306
 Alpha virt. eigenvalues --    1.69657   1.74200   1.83827   2.02027   2.19340
 Alpha virt. eigenvalues --    2.20099   2.22413   2.23156   2.26504   2.30004
 Alpha virt. eigenvalues --    2.35542   2.38432   2.38800   2.42398   2.43155
 Alpha virt. eigenvalues --    2.54172   2.54443   2.55093   2.59748   2.62327
 Alpha virt. eigenvalues --    2.70172   2.72180   2.86482   3.14071   3.35596
 Alpha virt. eigenvalues --    3.37133   3.54143   3.63079   3.74581   3.87229
 Alpha virt. eigenvalues --    4.00017   4.10846   4.16483   4.27913   4.40212
 Alpha virt. eigenvalues --    4.48810   4.52016   4.53345   4.73100   4.74527
 Alpha virt. eigenvalues --    4.98518   5.12243   5.16343   5.24547   5.32155
 Alpha virt. eigenvalues --    5.32394   5.56881   5.93344   5.99232   6.12622
 Alpha virt. eigenvalues --    6.31961   6.59945   7.38309   7.38472   7.44261
 Alpha virt. eigenvalues --    7.48301   7.77494   7.89679   8.08129   8.88256
 Alpha virt. eigenvalues --    8.89519   9.26809   9.36215   9.53026  11.24485
 Alpha virt. eigenvalues --   11.94930
          Condensed to atoms (all electrons):
               1          2          3          4
     1  N    6.437139   0.145645   0.398332   0.119788
     2  Cl   0.145645  16.866677  -0.029265  -0.033168
     3  H    0.398332  -0.029265   0.445550  -0.026685
     4  F    0.119788  -0.033168  -0.026685   9.101340
 Mulliken charges:
               1
     1  N   -0.100904
     2  Cl   0.050111
     3  H    0.212069
     4  F   -0.161275
 Sum of Mulliken charges =  -0.00000
 Mulliken charges with hydrogens summed into heavy atoms:
               1
     1  N    0.111165
     2  Cl   0.050111
     4  F   -0.161275
 Electronic spatial extent (au):  <R**2>=            217.9262
 Charge=             -0.0000 electrons
 Dipole moment (field-independent basis, Debye):
    X=             -0.3299    Y=              1.5777    Z=              0.0003  Tot=              1.6118
 Quadrupole moment (field-independent basis, Debye-Ang):
   XX=            -23.0210   YY=            -20.1370   ZZ=            -24.4114
   XY=              2.0853   XZ=              0.0002   YZ=              0.0004
 Traceless Quadrupole moment (field-independent basis, Debye-Ang):
   XX=             -0.4979   YY=              2.3861   ZZ=             -1.8882
   XY=              2.0853   XZ=              0.0002   YZ=              0.0004
 Octapole moment (field-independent basis, Debye-Ang**2):
  XXX=              3.1073  YYY=              4.1147  ZZZ=              0.0003  XYY=              4.9322
  XXY=             -0.4014  XXZ=              0.0001  XZZ=              2.9030  YZZ=             -1.0112
  YYZ=              0.0006  XYZ=              0.0003
 Hexadecapole moment (field-independent basis, Debye-Ang**3):
 XXXX=           -169.1201 YYYY=            -32.1115 ZZZZ=            -23.3972 XXXY=              2.2284
 XXXZ=              0.0003 YYYX=              1.8800 YYYZ=              0.0009 ZZZX=              0.0003
 ZZZY=              0.0003 XXYY=            -33.4635 XXZZ=            -34.5595 YYZZ=            -11.4439
 XXYZ=              0.0003 YYXZ=              0.0004 ZZXY=             -1.1798
 N-N= 1.037765944877D+02 E-N=-1.669720740428D+03  KE= 6.145248790717D+02
 Calling FoFJK, ICntrl=  10002127 FMM=F ISym2X=0 I1Cent= 0 IOpClX= 0 NMat=1 NMatS=1 NMatT=0.
 ***** Axes restored to original set *****
 -------------------------------------------------------------------
 Center     Atomic                   Forces (Hartrees/Bohr)
 Number     Number              X              Y              Z
 -------------------------------------------------------------------
      1        7          -0.000048566    0.000022875   -0.000050920
      2       17           0.000020682   -0.000006132   -0.000049892
      3        1          -0.000046123   -0.000010174    0.000069639
      4        9           0.000074007   -0.000006569    0.000031173
 -------------------------------------------------------------------
 Cartesian Forces:  Max     0.000074007 RMS     0.000042819
 -----------------------------------------------------------------------------------------------
                       Internal Coordinate Forces (Hartree/Bohr or radian)
  Cent   Atom   N1       Length/X         N2         Alpha/Y        N3         Beta/Z          J
 -----------------------------------------------------------------------------------------------
      1  N 
      2  Cl       1  -0.000050(     1)
      3  H        1  -0.000079(     2)      2  -0.000052(     4)
      4  F        1  -0.000080(     3)      2   0.000013(     5)      3  -0.000015(     6)     0
 -----------------------------------------------------------------------------------------------
 Internal  Forces:  Max     0.000080146 RMS     0.000055077
 NDeriv=     12 NFrqRd=  0 NDerD0=      0 MskFDP=       0 MskDFD=       0 MskDF0=       0
 At 1st pt F.D. properties file   721 does not exist.
 At 1st pt F.D. properties file   722 does not exist.
 D2Numr ... symmetry will be used.
 Standard basis: CC-pVTZ (5D, 7F)
   108 basis functions,   215 primitive gaussians,   124 cartesian basis functions
    17 alpha electrons       17 beta electrons
       nuclear repulsion energy       103.7699008743 Hartrees.
 NAtoms=    4 NActive=    4 NUniq=    4 SFac= 1.00D+00 NAtFMM=   60 NAOKFM=F Big=F
 Integral buffers will be    131072 words long.
 Raffenetti 1 integral format.
 Two-electron integral symmetry is turned off.
 One-electron integrals computed using PRISM.
 NBasis=   108 RedAO= T EigKep=  2.31D-03  NBF=   108
 NBsUse=   108 1.00D-06 EigRej= -1.00D+00 NBFU=   108
 Initial guess from the checkpoint file:  "/tmp/webmo-1487/62/Gau-2831.chk"
 B after Tr=     0.000389    0.000000   -0.000000
         Rot=    1.000000    0.000000    0.000000    0.000039 Ang=   0.00 deg.
 Keep R1 ints in memory in canonical form, NReq=19346084.
 Requested convergence on RMS density matrix=1.00D-08 within 128 cycles.
 Requested convergence on MAX density matrix=1.00D-06.
 Requested convergence on             energy=1.00D-06.
 No special actions if energy rises.
 SCF Done:  E(RHF) =  -613.884719391     A.U. after    8 cycles
            NFock=  8  Conv=0.41D-08     -V/T= 2.0003
 ExpMin= 1.03D-01 ExpMax= 4.56D+05 ExpMxC= 1.44D+03 IAcc=3 IRadAn=         5 AccDes= 0.00D+00
 HarFok:  IExCor=  205 AccDes= 0.00D+00 IRadAn=         5 IDoV=-2 UseB2=F ITyADJ=14
 ICtDFT= 12500011 ScaDFX=  1.000000  1.000000  1.000000  1.000000
 Range of M.O.s used for correlation:     8   108
 NBasis=   108 NAE=    17 NBE=    17 NFC=     7 NFV=     0
 NROrb=    101 NOA=    10 NOB=    10 NVA=    91 NVB=    91
 Semi-Direct transformation.
 ModeAB=           2 MOrb=            10 LenV=     104382957
 LASXX=      4780810 LTotXX=     4780810 LenRXX=     4780810
 LTotAB=     4920665 MaxLAS=     7827500 LenRXY=     7827500
 NonZer=     9561620 LenScr=    15093760 LnRSAI=           0
 LnScr1=           0 LExtra=           0 Total=     27702070
 MaxDsk=          -1 SrtSym=           F ITran=            4
 JobTyp=0 Pass  1:  I=   1 to  10.
 (rs|ai) integrals will be sorted in core.
 Spin components of T(2) and E(2):
     alpha-alpha T2 =       0.2228170649D-01 E2=     -0.8235701270D-01
     alpha-beta  T2 =       0.1247304820D+00 E2=     -0.4839662379D+00
     beta-beta   T2 =       0.2228170649D-01 E2=     -0.8235701270D-01
 ANorm=    0.1081338936D+01
 E2 =    -0.6486802633D+00 EUMP2 =    -0.61453339965448D+03
 Keep R2 and R3 ints in memory in canonical form, NReq=36676839.
 CIDS: In Core Option IDoMem=           1.
 Iterations=  50 Convergence= 0.100D-07
 Produce multiple copies of IABC intergrals
 Iteration Nr.   1
 **********************
 DD1Dir will call FoFMem   1 times, MxPair=       110
 NAB=    55 NAA=     0 NBB=     0.
 MP4(R+Q)=  0.14087905D-01
 E3=       -0.18673388D-01        EUMP3=      -0.61455207304D+03
 E4(DQ)=    0.43167440D-03        UMP4(DQ)=   -0.61455164137D+03
 E4(SDQ)=  -0.49109668D-02        UMP4(SDQ)=  -0.61455698401D+03
 DE(Corr)= -0.65309828     E(Corr)=     -614.53781767    
 NORM(A)=   0.10849444D+01
 Iteration Nr.   2
 **********************
 DD1Dir will call FoFMem   1 times, MxPair=       110
 NAB=    55 NAA=     0 NBB=     0.
 DE(Corr)= -0.66853993     E(CORR)=     -614.55325933     Delta=-1.54D-02
 NORM(A)=   0.10908455D+01
 Iteration Nr.   3
 **********************
 DD1Dir will call FoFMem   1 times, MxPair=       110
 NAB=    55 NAA=     0 NBB=     0.
 DE(Corr)= -0.66911761     E(CORR)=     -614.55383700     Delta=-5.78D-04
 NORM(A)=   0.10920057D+01
 Iteration Nr.   4
 **********************
 DD1Dir will call FoFMem   1 times, MxPair=       110
 NAB=    55 NAA=     0 NBB=     0.
 DE(Corr)= -0.67022143     E(CORR)=     -614.55494082     Delta=-1.10D-03
 NORM(A)=   0.10923152D+01
 Iteration Nr.   5
 **********************
 DD1Dir will call FoFMem   1 times, MxPair=       110
 NAB=    55 NAA=     0 NBB=     0.
 DE(Corr)= -0.67032632     E(CORR)=     -614.55504571     Delta=-1.05D-04
 NORM(A)=   0.10924221D+01
 Iteration Nr.   6
 **********************
 DD1Dir will call FoFMem   1 times, MxPair=       110
 NAB=    55 NAA=     0 NBB=     0.
 DE(Corr)= -0.67034050     E(CORR)=     -614.55505989     Delta=-1.42D-05
 NORM(A)=   0.10924359D+01
 Iteration Nr.   7
 **********************
 DD1Dir will call FoFMem   1 times, MxPair=       110
 NAB=    55 NAA=     0 NBB=     0.
 DE(Corr)= -0.67034177     E(CORR)=     -614.55506116     Delta=-1.27D-06
 NORM(A)=   0.10924374D+01
 Iteration Nr.   8
 **********************
 DD1Dir will call FoFMem   1 times, MxPair=       110
 NAB=    55 NAA=     0 NBB=     0.
 DE(Corr)= -0.67034062     E(CORR)=     -614.55506001     Delta= 1.14D-06
 NORM(A)=   0.10924402D+01
 Iteration Nr.   9
 **********************
 DD1Dir will call FoFMem   1 times, MxPair=       110
 NAB=    55 NAA=     0 NBB=     0.
 DE(Corr)= -0.67034067     E(CORR)=     -614.55506006     Delta=-5.26D-08
 NORM(A)=   0.10924407D+01
 Iteration Nr.  10
 **********************
 DD1Dir will call FoFMem   1 times, MxPair=       110
 NAB=    55 NAA=     0 NBB=     0.
 DE(Corr)= -0.67034103     E(CORR)=     -614.55506042     Delta=-3.56D-07
 NORM(A)=   0.10924411D+01
 Iteration Nr.  11
 **********************
 DD1Dir will call FoFMem   1 times, MxPair=       110
 NAB=    55 NAA=     0 NBB=     0.
 DE(Corr)= -0.67034120     E(CORR)=     -614.55506059     Delta=-1.71D-07
 NORM(A)=   0.10924413D+01
 Iteration Nr.  12
 **********************
 DD1Dir will call FoFMem   1 times, MxPair=       110
 NAB=    55 NAA=     0 NBB=     0.
 DE(Corr)= -0.67034128     E(CORR)=     -614.55506067     Delta=-7.96D-08
 NORM(A)=   0.10924414D+01
 Iteration Nr.  13
 **********************
 DD1Dir will call FoFMem   1 times, MxPair=       110
 NAB=    55 NAA=     0 NBB=     0.
 DE(Corr)= -0.67034131     E(CORR)=     -614.55506071     Delta=-3.39D-08
 NORM(A)=   0.10924414D+01
 Iteration Nr.  14
 **********************
 DD1Dir will call FoFMem   1 times, MxPair=       110
 NAB=    55 NAA=     0 NBB=     0.
 DE(Corr)= -0.67034132     E(CORR)=     -614.55506071     Delta=-7.15D-09
 NORM(A)=   0.10924414D+01
 Wavefunction amplitudes converged. E(Corr)=     -614.55506071    
 Largest amplitude= 3.54D-02

 Z-amplitude iterations

 Iteration Nr.   1
 **********************
 DD1Dir will call FoFMem   1 times, MxPair=       110
 NAB=    55 NAA=     0 NBB=     0.
 DE(Z)= -0.65243108     E(Z)=     -614.53715047     Delta= 1.79D-02
 NORM(A)=   0.10924385D+01
 Iteration Nr.   2
 **********************
 DD1Dir will call FoFMem   1 times, MxPair=       110
 NAB=    55 NAA=     0 NBB=     0.
 DE(Z)= -0.65243023     E(Z)=     -614.53714962     Delta= 8.50D-07
 NORM(A)=   0.10924055D+01
 Iteration Nr.   3
 **********************
 DD1Dir will call FoFMem   1 times, MxPair=       110
 NAB=    55 NAA=     0 NBB=     0.
 DE(Z)= -0.65242280     E(Z)=     -614.53714219     Delta= 7.42D-06
 NORM(A)=   0.10924352D+01
 Iteration Nr.   4
 **********************
 DD1Dir will call FoFMem   1 times, MxPair=       110
 NAB=    55 NAA=     0 NBB=     0.
 DE(Z)= -0.65242957     E(Z)=     -614.53714896     Delta=-6.77D-06
 NORM(A)=   0.10924526D+01
 Iteration Nr.   5
 **********************
 DD1Dir will call FoFMem   1 times, MxPair=       110
 NAB=    55 NAA=     0 NBB=     0.
 DE(Z)= -0.65243376     E(Z)=     -614.53715315     Delta=-4.19D-06
 NORM(A)=   0.10858262D+01
 Iteration Nr.   6
 **********************
 DD1Dir will call FoFMem   1 times, MxPair=       110
 NAB=    55 NAA=     0 NBB=     0.
 DE(Z)= -0.65077219     E(Z)=     -614.53549158     Delta= 1.66D-03
 NORM(A)=   0.10858236D+01
 Iteration Nr.   7
 **********************
 DD1Dir will call FoFMem   1 times, MxPair=       110
 NAB=    55 NAA=     0 NBB=     0.
 DE(Z)= -0.65077034     E(Z)=     -614.53548973     Delta= 1.85D-06
 NORM(A)=   0.10858236D+01
 Iteration Nr.   8
 **********************
 DD1Dir will call FoFMem   1 times, MxPair=       110
 NAB=    55 NAA=     0 NBB=     0.
 DE(Z)= -0.65077093     E(Z)=     -614.53549032     Delta=-5.86D-07
 NORM(A)=   0.10858227D+01
 Iteration Nr.   9
 **********************
 DD1Dir will call FoFMem   1 times, MxPair=       110
 NAB=    55 NAA=     0 NBB=     0.
 DE(Z)= -0.65077073     E(Z)=     -614.53549012     Delta= 2.01D-07
 NORM(A)=   0.10858225D+01
 Iteration Nr.  10
 **********************
 DD1Dir will call FoFMem   1 times, MxPair=       110
 NAB=    55 NAA=     0 NBB=     0.
 DE(Z)= -0.65077051     E(Z)=     -614.53548990     Delta= 2.17D-07
 NORM(A)=   0.10858225D+01
 Iteration Nr.  11
 **********************
 DD1Dir will call FoFMem   1 times, MxPair=       110
 NAB=    55 NAA=     0 NBB=     0.
 DE(Z)= -0.65077054     E(Z)=     -614.53548993     Delta=-2.56D-08
 NORM(A)=   0.10858225D+01
 Iteration Nr.  12
 **********************
 DD1Dir will call FoFMem   1 times, MxPair=       110
 NAB=    55 NAA=     0 NBB=     0.
 DE(Z)= -0.65077054     E(Z)=     -614.53548993     Delta=-2.17D-09
 NORM(A)=   0.10858225D+01
 Z-amplitudes converged.
 Discarding MO integrals.
          IDoAtm=1111
          Differentiating once with respect to electric field.
                with respect to dipole field.
          Differentiating once with respect to nuclear coordinates.
 Keep R1 ints in memory in canonical form, NReq=19347640.
          There are     1 degrees of freedom in the 1st order CPHF.  IDoFFX=0 NUNeed=     1.
 LinEq1:  Iter=  0 NonCon=     1 RMS=2.76D-03 Max=3.09D-02 NDo=     1
 AX will form     1 AO Fock derivatives at one time.
 LinEq1:  Iter=  1 NonCon=     1 RMS=8.91D-04 Max=9.93D-03 NDo=     1
 LinEq1:  Iter=  2 NonCon=     1 RMS=2.76D-04 Max=5.37D-03 NDo=     1
 LinEq1:  Iter=  3 NonCon=     1 RMS=9.81D-05 Max=1.38D-03 NDo=     1
 LinEq1:  Iter=  4 NonCon=     1 RMS=2.75D-05 Max=3.61D-04 NDo=     1
 LinEq1:  Iter=  5 NonCon=     1 RMS=8.28D-06 Max=8.29D-05 NDo=     1
 LinEq1:  Iter=  6 NonCon=     1 RMS=2.05D-06 Max=2.11D-05 NDo=     1
 LinEq1:  Iter=  7 NonCon=     1 RMS=5.50D-07 Max=4.69D-06 NDo=     1
 LinEq1:  Iter=  8 NonCon=     1 RMS=1.32D-07 Max=2.17D-06 NDo=     1
 LinEq1:  Iter=  9 NonCon=     1 RMS=2.47D-08 Max=3.57D-07 NDo=     1
 LinEq1:  Iter= 10 NonCon=     1 RMS=6.06D-09 Max=8.00D-08 NDo=     1
 LinEq1:  Iter= 11 NonCon=     1 RMS=1.11D-09 Max=1.06D-08 NDo=     1
 LinEq1:  Iter= 12 NonCon=     1 RMS=2.22D-10 Max=2.37D-09 NDo=     1
 LinEq1:  Iter= 13 NonCon=     0 RMS=4.64D-11 Max=4.13D-10 NDo=     1
 Linear equations converged to 1.000D-10 1.000D-09 after    13 iterations.
 End of Minotr F.D. properties file   721 does not exist.
 End of Minotr F.D. properties file   722 does not exist.
 End of Minotr F.D. properties file   788 does not exist.

 **********************************************************************

            Population analysis using the CC Density.

 **********************************************************************

 Alpha  occ. eigenvalues -- -104.89112 -26.33513 -15.67489 -10.61216  -8.07944
 Alpha  occ. eigenvalues --   -8.07672  -8.07615  -1.64347  -1.23994  -1.01518
 Alpha  occ. eigenvalues --   -0.76998  -0.72412  -0.71307  -0.61171  -0.55042
 Alpha  occ. eigenvalues --   -0.49308  -0.38326
 Alpha virt. eigenvalues --    0.11317   0.18245   0.26781   0.45801   0.47124
 Alpha virt. eigenvalues --    0.48230   0.51334   0.58697   0.62334   0.62718
 Alpha virt. eigenvalues --    0.62820   0.63359   0.68451   0.70102   0.82691
 Alpha virt. eigenvalues --    0.87025   0.92488   1.01041   1.05784   1.08242
 Alpha virt. eigenvalues --    1.12614   1.22049   1.39230   1.43940   1.54267
 Alpha virt. eigenvalues --    1.69696   1.74223   1.83851   2.02037   2.19347
 Alpha virt. eigenvalues --    2.20087   2.22419   2.23162   2.26503   2.30006
 Alpha virt. eigenvalues --    2.35544   2.38436   2.38806   2.42398   2.43143
 Alpha virt. eigenvalues --    2.54178   2.54456   2.55112   2.59730   2.62341
 Alpha virt. eigenvalues --    2.70134   2.72157   2.86530   3.13982   3.35598
 Alpha virt. eigenvalues --    3.37119   3.54139   3.63095   3.74559   3.87257
 Alpha virt. eigenvalues --    3.99993   4.10856   4.16492   4.27949   4.40259
 Alpha virt. eigenvalues --    4.48838   4.52057   4.53370   4.73132   4.74448
 Alpha virt. eigenvalues --    4.98515   5.12212   5.16338   5.24520   5.32233
 Alpha virt. eigenvalues --    5.32317   5.56913   5.93357   5.99306   6.12727
 Alpha virt. eigenvalues --    6.31770   6.60071   7.38293   7.38455   7.44289
 Alpha virt. eigenvalues --    7.48323   7.77621   7.89893   8.08259   8.88254
 Alpha virt. eigenvalues --    8.89518   9.26876   9.36278   9.53060  11.24656
 Alpha virt. eigenvalues --   11.95528
          Condensed to atoms (all electrons):
               1          2          3          4
     1  N    6.436923   0.145843   0.398364   0.119732
     2  Cl   0.145843  16.866822  -0.029257  -0.033192
     3  H    0.398364  -0.029257   0.445607  -0.026701
     4  F    0.119732  -0.033192  -0.026701   9.101069
 Mulliken charges:
               1
     1  N   -0.100862
     2  Cl   0.049784
     3  H    0.211986
     4  F   -0.160908
 Sum of Mulliken charges =  -0.00000
 Mulliken charges with hydrogens summed into heavy atoms:
               1
     1  N    0.111124
     2  Cl   0.049784
     4  F   -0.160908
 Electronic spatial extent (au):  <R**2>=            217.9495
 Charge=             -0.0000 electrons
 Dipole moment (field-independent basis, Debye):
    X=             -0.3272    Y=              1.5767    Z=              0.0003  Tot=              1.6103
 Quadrupole moment (field-independent basis, Debye-Ang):
   XX=            -23.0182   YY=            -20.1384   ZZ=            -24.4119
   XY=              2.0843   XZ=              0.0002   YZ=              0.0004
 Traceless Quadrupole moment (field-independent basis, Debye-Ang):
   XX=             -0.4954   YY=              2.3844   ZZ=             -1.8891
   XY=              2.0843   XZ=              0.0002   YZ=              0.0004
 Octapole moment (field-independent basis, Debye-Ang**2):
  XXX=              3.1001  YYY=              4.1137  ZZZ=              0.0003  XYY=              4.9287
  XXY=             -0.4030  XXZ=              0.0001  XZZ=              2.8987  YZZ=             -1.0122
  YYZ=              0.0006  XYZ=              0.0003
 Hexadecapole moment (field-independent basis, Debye-Ang**3):
 XXXX=           -169.1376 YYYY=            -32.1129 ZZZZ=            -23.3991 XXXY=              2.2204
 XXXZ=              0.0003 YYYX=              1.8681 YYYZ=              0.0009 ZZZX=              0.0003
 ZZZY=              0.0003 XXYY=            -33.4707 XXZZ=            -34.5626 YYZZ=            -11.4448
 XXYZ=              0.0003 YYXZ=              0.0004 ZZXY=             -1.1831
 N-N= 1.037699008743D+02 E-N=-1.669706933856D+03  KE= 6.145249809815D+02
 Calling FoFJK, ICntrl=  10002127 FMM=F ISym2X=0 I1Cent= 0 IOpClX= 0 NMat=1 NMatS=1 NMatT=0.
 -------------------------------------------------------------------
 Center     Atomic                   Forces (Hartrees/Bohr)
 Number     Number              X              Y              Z
 -------------------------------------------------------------------
      1        7          -0.000905335   -0.000170227   -0.000022951
      2       17           0.000464849    0.000220911    0.000006120
      3        1           0.000101750    0.000143967    0.000010214
      4        9           0.000338737   -0.000194652    0.000006617
 -------------------------------------------------------------------
 Cartesian Forces:  Max     0.000905335 RMS     0.000328877
 NDeriv=     12 NFrqRd=  0 NDerD0=      0 MskFDP=       0 MskDFD=       0 MskDF0=       0
 Re-enter D2Numr:  atom      1 IXYZ=1 step-up   number 1
 Standard basis: CC-pVTZ (5D, 7F)
   108 basis functions,   215 primitive gaussians,   124 cartesian basis functions
    17 alpha electrons       17 beta electrons
       nuclear repulsion energy       103.7833160267 Hartrees.
 NAtoms=    4 NActive=    4 NUniq=    4 SFac= 1.00D+00 NAtFMM=   60 NAOKFM=F Big=F
 Integral buffers will be    131072 words long.
 Raffenetti 1 integral format.
 Two-electron integral symmetry is turned off.
 One-electron integrals computed using PRISM.
 NBasis=   108 RedAO= T EigKep=  2.32D-03  NBF=   108
 NBsUse=   108 1.00D-06 EigRej= -1.00D+00 NBFU=   108
 Initial guess from the checkpoint file:  "/tmp/webmo-1487/62/Gau-2831.chk"
 B after Tr=    -0.000389   -0.000000    0.000000
         Rot=    1.000000    0.000000   -0.000000   -0.000039 Ang=  -0.00 deg.
 Keep R1 ints in memory in canonical form, NReq=19346070.
 Requested convergence on RMS density matrix=1.00D-08 within 128 cycles.
 Requested convergence on MAX density matrix=1.00D-06.
 Requested convergence on             energy=1.00D-06.
 No special actions if energy rises.
 SCF Done:  E(RHF) =  -613.884674243     A.U. after    8 cycles
            NFock=  8  Conv=0.41D-08     -V/T= 2.0003
 ExpMin= 1.03D-01 ExpMax= 4.56D+05 ExpMxC= 1.44D+03 IAcc=3 IRadAn=         5 AccDes= 0.00D+00
 HarFok:  IExCor=  205 AccDes= 0.00D+00 IRadAn=         5 IDoV=-2 UseB2=F ITyADJ=14
 ICtDFT= 12500011 ScaDFX=  1.000000  1.000000  1.000000  1.000000
 Range of M.O.s used for correlation:     8   108
 NBasis=   108 NAE=    17 NBE=    17 NFC=     7 NFV=     0
 NROrb=    101 NOA=    10 NOB=    10 NVA=    91 NVB=    91
 Semi-Direct transformation.
 ModeAB=           2 MOrb=            10 LenV=     104382943
 LASXX=      4780810 LTotXX=     4780810 LenRXX=     4780810
 LTotAB=     4920665 MaxLAS=     7827500 LenRXY=     7827500
 NonZer=     9561620 LenScr=    15093760 LnRSAI=           0
 LnScr1=           0 LExtra=           0 Total=     27702070
 MaxDsk=          -1 SrtSym=           F ITran=            4
 JobTyp=0 Pass  1:  I=   1 to  10.
 (rs|ai) integrals will be sorted in core.
 Spin components of T(2) and E(2):
     alpha-alpha T2 =       0.2228642435D-01 E2=     -0.8236681398D-01
     alpha-beta  T2 =       0.1247532177D+00 E2=     -0.4840116811D+00
     beta-beta   T2 =       0.2228642435D-01 E2=     -0.8236681398D-01
 ANorm=    0.1081353812D+01
 E2 =    -0.6487453090D+00 EUMP2 =    -0.61453341955198D+03
 Keep R2 and R3 ints in memory in canonical form, NReq=36676825.
 CIDS: In Core Option IDoMem=           1.
 Iterations=  50 Convergence= 0.100D-07
 Produce multiple copies of IABC intergrals
 Iteration Nr.   1
 **********************
 DD1Dir will call FoFMem   1 times, MxPair=       110
 NAB=    55 NAA=     0 NBB=     0.
 MP4(R+Q)=  0.14090148D-01
 E3=       -0.18640858D-01        EUMP3=      -0.61455206041D+03
 E4(DQ)=    0.42476266D-03        UMP4(DQ)=   -0.61455163565D+03
 E4(SDQ)=  -0.49263681D-02        UMP4(SDQ)=  -0.61455698678D+03
 DE(Corr)= -0.65312796     E(Corr)=     -614.53780221    
 NORM(A)=   0.10849505D+01
 Iteration Nr.   2
 **********************
 DD1Dir will call FoFMem   1 times, MxPair=       110
 NAB=    55 NAA=     0 NBB=     0.
 DE(Corr)= -0.66858554     E(CORR)=     -614.55325979     Delta=-1.55D-02
 NORM(A)=   0.10908565D+01
 Iteration Nr.   3
 **********************
 DD1Dir will call FoFMem   1 times, MxPair=       110
 NAB=    55 NAA=     0 NBB=     0.
 DE(Corr)= -0.66916025     E(CORR)=     -614.55383449     Delta=-5.75D-04
 NORM(A)=   0.10920189D+01
 Iteration Nr.   4
 **********************
 DD1Dir will call FoFMem   1 times, MxPair=       110
 NAB=    55 NAA=     0 NBB=     0.
 DE(Corr)= -0.67026607     E(CORR)=     -614.55494031     Delta=-1.11D-03
 NORM(A)=   0.10923293D+01
 Iteration Nr.   5
 **********************
 DD1Dir will call FoFMem   1 times, MxPair=       110
 NAB=    55 NAA=     0 NBB=     0.
 DE(Corr)= -0.67037118     E(CORR)=     -614.55504542     Delta=-1.05D-04
 NORM(A)=   0.10924364D+01
 Iteration Nr.   6
 **********************
 DD1Dir will call FoFMem   1 times, MxPair=       110
 NAB=    55 NAA=     0 NBB=     0.
 DE(Corr)= -0.67038539     E(CORR)=     -614.55505963     Delta=-1.42D-05
 NORM(A)=   0.10924503D+01
 Iteration Nr.   7
 **********************
 DD1Dir will call FoFMem   1 times, MxPair=       110
 NAB=    55 NAA=     0 NBB=     0.
 DE(Corr)= -0.67038666     E(CORR)=     -614.55506090     Delta=-1.27D-06
 NORM(A)=   0.10924517D+01
 Iteration Nr.   8
 **********************
 DD1Dir will call FoFMem   1 times, MxPair=       110
 NAB=    55 NAA=     0 NBB=     0.
 DE(Corr)= -0.67038552     E(CORR)=     -614.55505976     Delta= 1.14D-06
 NORM(A)=   0.10924546D+01
 Iteration Nr.   9
 **********************
 DD1Dir will call FoFMem   1 times, MxPair=       110
 NAB=    55 NAA=     0 NBB=     0.
 DE(Corr)= -0.67038557     E(CORR)=     -614.55505981     Delta=-5.11D-08
 NORM(A)=   0.10924550D+01
 Iteration Nr.  10
 **********************
 DD1Dir will call FoFMem   1 times, MxPair=       110
 NAB=    55 NAA=     0 NBB=     0.
 DE(Corr)= -0.67038592     E(CORR)=     -614.55506017     Delta=-3.57D-07
 NORM(A)=   0.10924555D+01
 Iteration Nr.  11
 **********************
 DD1Dir will call FoFMem   1 times, MxPair=       110
 NAB=    55 NAA=     0 NBB=     0.
 DE(Corr)= -0.67038610     E(CORR)=     -614.55506034     Delta=-1.72D-07
 NORM(A)=   0.10924556D+01
 Iteration Nr.  12
 **********************
 DD1Dir will call FoFMem   1 times, MxPair=       110
 NAB=    55 NAA=     0 NBB=     0.
 DE(Corr)= -0.67038618     E(CORR)=     -614.55506042     Delta=-7.97D-08
 NORM(A)=   0.10924557D+01
 Iteration Nr.  13
 **********************
 DD1Dir will call FoFMem   1 times, MxPair=       110
 NAB=    55 NAA=     0 NBB=     0.
 DE(Corr)= -0.67038621     E(CORR)=     -614.55506045     Delta=-3.40D-08
 NORM(A)=   0.10924558D+01
 Iteration Nr.  14
 **********************
 DD1Dir will call FoFMem   1 times, MxPair=       110
 NAB=    55 NAA=     0 NBB=     0.
 DE(Corr)= -0.67038622     E(CORR)=     -614.55506046     Delta=-7.13D-09
 NORM(A)=   0.10924558D+01
 Wavefunction amplitudes converged. E(Corr)=     -614.55506046    
 Largest amplitude= 3.58D-02

 Z-amplitude iterations

 Iteration Nr.   1
 **********************
 DD1Dir will call FoFMem   1 times, MxPair=       110
 NAB=    55 NAA=     0 NBB=     0.
 DE(Z)= -0.65247097     E(Z)=     -614.53714521     Delta= 1.79D-02
 NORM(A)=   0.10924531D+01
 Iteration Nr.   2
 **********************
 DD1Dir will call FoFMem   1 times, MxPair=       110
 NAB=    55 NAA=     0 NBB=     0.
 DE(Z)= -0.65247020     E(Z)=     -614.53714444     Delta= 7.72D-07
 NORM(A)=   0.10924530D+01
 Iteration Nr.   3
 **********************
 DD1Dir will call FoFMem   1 times, MxPair=       110
 NAB=    55 NAA=     0 NBB=     0.
 DE(Z)= -0.65247032     E(Z)=     -614.53714457     Delta=-1.29D-07
 NORM(A)=   0.10924522D+01
 Iteration Nr.   4
 **********************
 DD1Dir will call FoFMem   1 times, MxPair=       110
 NAB=    55 NAA=     0 NBB=     0.
 DE(Z)= -0.65247011     E(Z)=     -614.53714436     Delta= 2.11D-07
 NORM(A)=   0.10924472D+01
 Iteration Nr.   5
 **********************
 DD1Dir will call FoFMem   1 times, MxPair=       110
 NAB=    55 NAA=     0 NBB=     0.
 DE(Z)= -0.65246890     E(Z)=     -614.53714314     Delta= 1.21D-06
 NORM(A)=   0.10858268D+01
 Iteration Nr.   6
 **********************
 DD1Dir will call FoFMem   1 times, MxPair=       110
 NAB=    55 NAA=     0 NBB=     0.
 DE(Z)= -0.65080717     E(Z)=     -614.53548141     Delta= 1.66D-03
 NORM(A)=   0.10858290D+01
 Iteration Nr.   7
 **********************
 DD1Dir will call FoFMem   1 times, MxPair=       110
 NAB=    55 NAA=     0 NBB=     0.
 DE(Z)= -0.65080840     E(Z)=     -614.53548264     Delta=-1.23D-06
 NORM(A)=   0.10858296D+01
 Iteration Nr.   8
 **********************
 DD1Dir will call FoFMem   1 times, MxPair=       110
 NAB=    55 NAA=     0 NBB=     0.
 DE(Z)= -0.65080674     E(Z)=     -614.53548098     Delta= 1.66D-06
 NORM(A)=   0.10858327D+01
 Iteration Nr.   9
 **********************
 DD1Dir will call FoFMem   1 times, MxPair=       110
 NAB=    55 NAA=     0 NBB=     0.
 DE(Z)= -0.65080903     E(Z)=     -614.53548327     Delta=-2.29D-06
 NORM(A)=   0.10858339D+01
 Iteration Nr.  10
 **********************
 DD1Dir will call FoFMem   1 times, MxPair=       110
 NAB=    55 NAA=     0 NBB=     0.
 DE(Z)= -0.65080890     E(Z)=     -614.53548314     Delta= 1.29D-07
 NORM(A)=   0.10858341D+01
 Iteration Nr.  11
 **********************
 DD1Dir will call FoFMem   1 times, MxPair=       110
 NAB=    55 NAA=     0 NBB=     0.
 DE(Z)= -0.65080892     E(Z)=     -614.53548316     Delta=-2.09D-08
 NORM(A)=   0.10858341D+01
 Iteration Nr.  12
 **********************
 DD1Dir will call FoFMem   1 times, MxPair=       110
 NAB=    55 NAA=     0 NBB=     0.
 DE(Z)= -0.65080893     E(Z)=     -614.53548318     Delta=-1.52D-08
 NORM(A)=   0.10858342D+01
 Iteration Nr.  13
 **********************
 DD1Dir will call FoFMem   1 times, MxPair=       110
 NAB=    55 NAA=     0 NBB=     0.
 DE(Z)= -0.65080893     E(Z)=     -614.53548317     Delta= 6.02D-09
 NORM(A)=   0.10858342D+01
 Z-amplitudes converged.
 Discarding MO integrals.
          IDoAtm=1111
          Differentiating once with respect to electric field.
                with respect to dipole field.
          Differentiating once with respect to nuclear coordinates.
 Keep R1 ints in memory in canonical form, NReq=19347640.
          There are     1 degrees of freedom in the 1st order CPHF.  IDoFFX=0 NUNeed=     1.
 LinEq1:  Iter=  0 NonCon=     1 RMS=2.76D-03 Max=3.10D-02 NDo=     1
 AX will form     1 AO Fock derivatives at one time.
 LinEq1:  Iter=  1 NonCon=     1 RMS=8.93D-04 Max=1.02D-02 NDo=     1
 LinEq1:  Iter=  2 NonCon=     1 RMS=2.77D-04 Max=5.40D-03 NDo=     1
 LinEq1:  Iter=  3 NonCon=     1 RMS=9.85D-05 Max=1.38D-03 NDo=     1
 LinEq1:  Iter=  4 NonCon=     1 RMS=2.77D-05 Max=3.67D-04 NDo=     1
 LinEq1:  Iter=  5 NonCon=     1 RMS=8.34D-06 Max=8.44D-05 NDo=     1
 LinEq1:  Iter=  6 NonCon=     1 RMS=2.06D-06 Max=2.12D-05 NDo=     1
 LinEq1:  Iter=  7 NonCon=     1 RMS=5.50D-07 Max=4.67D-06 NDo=     1
 LinEq1:  Iter=  8 NonCon=     1 RMS=1.31D-07 Max=2.15D-06 NDo=     1
 LinEq1:  Iter=  9 NonCon=     1 RMS=2.45D-08 Max=3.51D-07 NDo=     1
 LinEq1:  Iter= 10 NonCon=     1 RMS=6.03D-09 Max=8.11D-08 NDo=     1
 LinEq1:  Iter= 11 NonCon=     1 RMS=1.12D-09 Max=1.09D-08 NDo=     1
 LinEq1:  Iter= 12 NonCon=     1 RMS=2.23D-10 Max=2.38D-09 NDo=     1
 LinEq1:  Iter= 13 NonCon=     0 RMS=4.69D-11 Max=4.11D-10 NDo=     1
 Linear equations converged to 1.000D-10 1.000D-09 after    13 iterations.
 End of Minotr F.D. properties file   721 does not exist.
 End of Minotr F.D. properties file   722 does not exist.
 End of Minotr F.D. properties file   788 does not exist.

 **********************************************************************

            Population analysis using the CC Density.

 **********************************************************************

 Alpha  occ. eigenvalues -- -104.89121 -26.33485 -15.67494 -10.61227  -8.07956
 Alpha  occ. eigenvalues --   -8.07683  -8.07626  -1.64263  -1.24071  -1.01495
 Alpha  occ. eigenvalues --   -0.76946  -0.72363  -0.71269  -0.61211  -0.55084
 Alpha  occ. eigenvalues --   -0.49314  -0.38320
 Alpha virt. eigenvalues --    0.11330   0.18260   0.26713   0.45783   0.47117
 Alpha virt. eigenvalues --    0.48215   0.51307   0.58698   0.62327   0.62710
 Alpha virt. eigenvalues --    0.62843   0.63355   0.68430   0.70096   0.82732
 Alpha virt. eigenvalues --    0.87032   0.92513   1.01089   1.05799   1.08246
 Alpha virt. eigenvalues --    1.12660   1.22092   1.39191   1.43930   1.54345
 Alpha virt. eigenvalues --    1.69618   1.74177   1.83804   2.02017   2.19332
 Alpha virt. eigenvalues --    2.20111   2.22406   2.23149   2.26506   2.30001
 Alpha virt. eigenvalues --    2.35541   2.38429   2.38793   2.42398   2.43168
 Alpha virt. eigenvalues --    2.54167   2.54431   2.55075   2.59767   2.62312
 Alpha virt. eigenvalues --    2.70210   2.72202   2.86434   3.14160   3.35594
 Alpha virt. eigenvalues --    3.37146   3.54147   3.63064   3.74603   3.87200
 Alpha virt. eigenvalues --    4.00041   4.10835   4.16474   4.27877   4.40166
 Alpha virt. eigenvalues --    4.48783   4.51974   4.53320   4.73069   4.74606
 Alpha virt. eigenvalues --    4.98520   5.12275   5.16347   5.24571   5.32077
 Alpha virt. eigenvalues --    5.32475   5.56849   5.93332   5.99158   6.12517
 Alpha virt. eigenvalues --    6.32151   6.59820   7.38325   7.38489   7.44233
 Alpha virt. eigenvalues --    7.48278   7.77368   7.89465   8.07999   8.88259
 Alpha virt. eigenvalues --    8.89519   9.26742   9.36152   9.52993  11.24312
 Alpha virt. eigenvalues --   11.94335
          Condensed to atoms (all electrons):
               1          2          3          4
     1  N    6.437356   0.145447   0.398299   0.119844
     2  Cl   0.145447  16.866533  -0.029274  -0.033144
     3  H    0.398299  -0.029274   0.445492  -0.026669
     4  F    0.119844  -0.033144  -0.026669   9.101611
 Mulliken charges:
               1
     1  N   -0.100947
     2  Cl   0.050438
     3  H    0.212151
     4  F   -0.161642
 Sum of Mulliken charges =  -0.00000
 Mulliken charges with hydrogens summed into heavy atoms:
               1
     1  N    0.111205
     2  Cl   0.050438
     4  F   -0.161642
 Electronic spatial extent (au):  <R**2>=            217.9029
 Charge=             -0.0000 electrons
 Dipole moment (field-independent basis, Debye):
    X=             -0.3326    Y=              1.5787    Z=              0.0003  Tot=              1.6134
 Quadrupole moment (field-independent basis, Debye-Ang):
   XX=            -23.0238   YY=            -20.1357   ZZ=            -24.4108
   XY=              2.0863   XZ=              0.0002   YZ=              0.0004
 Traceless Quadrupole moment (field-independent basis, Debye-Ang):
   XX=             -0.5004   YY=              2.3878   ZZ=             -1.8874
   XY=              2.0863   XZ=              0.0002   YZ=              0.0004
 Octapole moment (field-independent basis, Debye-Ang**2):
  XXX=              3.1145  YYY=              4.1157  ZZZ=              0.0003  XYY=              4.9357
  XXY=             -0.3998  XXZ=              0.0001  XZZ=              2.9074  YZZ=             -1.0102
  YYZ=              0.0006  XYZ=              0.0003
 Hexadecapole moment (field-independent basis, Debye-Ang**3):
 XXXX=           -169.1028 YYYY=            -32.1101 ZZZZ=            -23.3952 XXXY=              2.2363
 XXXZ=              0.0003 YYYX=              1.8919 YYYZ=              0.0009 ZZZX=              0.0003
 ZZZY=              0.0003 XXYY=            -33.4563 XXZZ=            -34.5564 YYZZ=            -11.4431
 XXYZ=              0.0003 YYXZ=              0.0004 ZZXY=             -1.1766
 N-N= 1.037833160267D+02 E-N=-1.669734606328D+03  KE= 6.145247856948D+02
 Calling FoFJK, ICntrl=  10002127 FMM=F ISym2X=0 I1Cent= 0 IOpClX= 0 NMat=1 NMatS=1 NMatT=0.
 -------------------------------------------------------------------
 Center     Atomic                   Forces (Hartrees/Bohr)
 Number     Number              X              Y              Z
 -------------------------------------------------------------------
      1        7           0.001037767    0.000123694   -0.000022816
      2       17          -0.000391326   -0.000145086    0.000006150
      3        1          -0.000194353   -0.000283510    0.000010119
      4        9          -0.000452088    0.000304901    0.000006547
 -------------------------------------------------------------------
 Cartesian Forces:  Max     0.001037767 RMS     0.000374461
 NDeriv=     12 NFrqRd=  0 NDerD0=      0 MskFDP=       0 MskDFD=       0 MskDF0=       0
 Re-enter D2Numr:  atom      1 IXYZ=1 step-down number 1
 Standard basis: CC-pVTZ (5D, 7F)
   108 basis functions,   215 primitive gaussians,   124 cartesian basis functions
    17 alpha electrons       17 beta electrons
       nuclear repulsion energy       103.7596183940 Hartrees.
 NAtoms=    4 NActive=    4 NUniq=    4 SFac= 1.00D+00 NAtFMM=   60 NAOKFM=F Big=F
 Integral buffers will be    131072 words long.
 Raffenetti 1 integral format.
 Two-electron integral symmetry is turned off.
 One-electron integrals computed using PRISM.
 NBasis=   108 RedAO= T EigKep=  2.31D-03  NBF=   108
 NBsUse=   108 1.00D-06 EigRej= -1.00D+00 NBFU=   108
 Initial guess from the checkpoint file:  "/tmp/webmo-1487/62/Gau-2831.chk"
 B after Tr=     0.000000    0.000389   -0.000000
         Rot=    1.000000   -0.000000   -0.000000   -0.000036 Ang=  -0.00 deg.
 Keep R1 ints in memory in canonical form, NReq=19346070.
 Requested convergence on RMS density matrix=1.00D-08 within 128 cycles.
 Requested convergence on MAX density matrix=1.00D-06.
 Requested convergence on             energy=1.00D-06.
 No special actions if energy rises.
 SCF Done:  E(RHF) =  -613.884677347     A.U. after    8 cycles
            NFock=  8  Conv=0.22D-08     -V/T= 2.0003
 ExpMin= 1.03D-01 ExpMax= 4.56D+05 ExpMxC= 1.44D+03 IAcc=3 IRadAn=         5 AccDes= 0.00D+00
 HarFok:  IExCor=  205 AccDes= 0.00D+00 IRadAn=         5 IDoV=-2 UseB2=F ITyADJ=14
 ICtDFT= 12500011 ScaDFX=  1.000000  1.000000  1.000000  1.000000
 Range of M.O.s used for correlation:     8   108
 NBasis=   108 NAE=    17 NBE=    17 NFC=     7 NFV=     0
 NROrb=    101 NOA=    10 NOB=    10 NVA=    91 NVB=    91
 Semi-Direct transformation.
 ModeAB=           2 MOrb=            10 LenV=     104382957
 LASXX=      4780810 LTotXX=     4780810 LenRXX=     4780810
 LTotAB=     4920665 MaxLAS=     7827500 LenRXY=     7827500
 NonZer=     9561620 LenScr=    15093760 LnRSAI=           0
 LnScr1=           0 LExtra=           0 Total=     27702070
 MaxDsk=          -1 SrtSym=           F ITran=            4
 JobTyp=0 Pass  1:  I=   1 to  10.
 (rs|ai) integrals will be sorted in core.
 Spin components of T(2) and E(2):
     alpha-alpha T2 =       0.2228590840D-01 E2=     -0.8235980311D-01
     alpha-beta  T2 =       0.1247633344D+00 E2=     -0.4840104426D+00
     beta-beta   T2 =       0.2228590840D-01 E2=     -0.8235980311D-01
 ANorm=    0.1081358013D+01
 E2 =    -0.6487300488D+00 EUMP2 =    -0.61453340739558D+03
 Keep R2 and R3 ints in memory in canonical form, NReq=36676825.
 CIDS: In Core Option IDoMem=           1.
 Iterations=  50 Convergence= 0.100D-07
 Produce multiple copies of IABC intergrals
 Iteration Nr.   1
 **********************
 DD1Dir will call FoFMem   1 times, MxPair=       110
 NAB=    55 NAA=     0 NBB=     0.
 MP4(R+Q)=  0.14094018D-01
 E3=       -0.18656099D-01        EUMP3=      -0.61455206349D+03
 E4(DQ)=    0.42819720D-03        UMP4(DQ)=   -0.61455163530D+03
 E4(SDQ)=  -0.49228629D-02        UMP4(SDQ)=  -0.61455698636D+03
 DE(Corr)= -0.65312408     E(Corr)=     -614.53780143    
 NORM(A)=   0.10849585D+01
 Iteration Nr.   2
 **********************
 DD1Dir will call FoFMem   1 times, MxPair=       110
 NAB=    55 NAA=     0 NBB=     0.
 DE(Corr)= -0.66858160     E(CORR)=     -614.55325895     Delta=-1.55D-02
 NORM(A)=   0.10908655D+01
 Iteration Nr.   3
 **********************
 DD1Dir will call FoFMem   1 times, MxPair=       110
 NAB=    55 NAA=     0 NBB=     0.
 DE(Corr)= -0.66915651     E(CORR)=     -614.55383386     Delta=-5.75D-04
 NORM(A)=   0.10920283D+01
 Iteration Nr.   4
 **********************
 DD1Dir will call FoFMem   1 times, MxPair=       110
 NAB=    55 NAA=     0 NBB=     0.
 DE(Corr)= -0.67026250     E(CORR)=     -614.55493984     Delta=-1.11D-03
 NORM(A)=   0.10923388D+01
 Iteration Nr.   5
 **********************
 DD1Dir will call FoFMem   1 times, MxPair=       110
 NAB=    55 NAA=     0 NBB=     0.
 DE(Corr)= -0.67036764     E(CORR)=     -614.55504499     Delta=-1.05D-04
 NORM(A)=   0.10924460D+01
 Iteration Nr.   6
 **********************
 DD1Dir will call FoFMem   1 times, MxPair=       110
 NAB=    55 NAA=     0 NBB=     0.
 DE(Corr)= -0.67038187     E(CORR)=     -614.55505921     Delta=-1.42D-05
 NORM(A)=   0.10924599D+01
 Iteration Nr.   7
 **********************
 DD1Dir will call FoFMem   1 times, MxPair=       110
 NAB=    55 NAA=     0 NBB=     0.
 DE(Corr)= -0.67038314     E(CORR)=     -614.55506048     Delta=-1.27D-06
 NORM(A)=   0.10924614D+01
 Iteration Nr.   8
 **********************
 DD1Dir will call FoFMem   1 times, MxPair=       110
 NAB=    55 NAA=     0 NBB=     0.
 DE(Corr)= -0.67038199     E(CORR)=     -614.55505934     Delta= 1.14D-06
 NORM(A)=   0.10924643D+01
 Iteration Nr.   9
 **********************
 DD1Dir will call FoFMem   1 times, MxPair=       110
 NAB=    55 NAA=     0 NBB=     0.
 DE(Corr)= -0.67038204     E(CORR)=     -614.55505939     Delta=-5.07D-08
 NORM(A)=   0.10924647D+01
 Iteration Nr.  10
 **********************
 DD1Dir will call FoFMem   1 times, MxPair=       110
 NAB=    55 NAA=     0 NBB=     0.
 DE(Corr)= -0.67038240     E(CORR)=     -614.55505975     Delta=-3.57D-07
 NORM(A)=   0.10924651D+01
 Iteration Nr.  11
 **********************
 DD1Dir will call FoFMem   1 times, MxPair=       110
 NAB=    55 NAA=     0 NBB=     0.
 DE(Corr)= -0.67038257     E(CORR)=     -614.55505992     Delta=-1.72D-07
 NORM(A)=   0.10924653D+01
 Iteration Nr.  12
 **********************
 DD1Dir will call FoFMem   1 times, MxPair=       110
 NAB=    55 NAA=     0 NBB=     0.
 DE(Corr)= -0.67038265     E(CORR)=     -614.55506000     Delta=-7.99D-08
 NORM(A)=   0.10924654D+01
 Iteration Nr.  13
 **********************
 DD1Dir will call FoFMem   1 times, MxPair=       110
 NAB=    55 NAA=     0 NBB=     0.
 DE(Corr)= -0.67038269     E(CORR)=     -614.55506003     Delta=-3.41D-08
 NORM(A)=   0.10924654D+01
 Iteration Nr.  14
 **********************
 DD1Dir will call FoFMem   1 times, MxPair=       110
 NAB=    55 NAA=     0 NBB=     0.
 DE(Corr)= -0.67038269     E(CORR)=     -614.55506004     Delta=-7.19D-09
 NORM(A)=   0.10924654D+01
 Wavefunction amplitudes converged. E(Corr)=     -614.55506004    
 Largest amplitude= 3.57D-02

 Z-amplitude iterations

 Iteration Nr.   1
 **********************
 DD1Dir will call FoFMem   1 times, MxPair=       110
 NAB=    55 NAA=     0 NBB=     0.
 DE(Z)= -0.65246225     E(Z)=     -614.53713960     Delta= 1.79D-02
 NORM(A)=   0.10924614D+01
 Iteration Nr.   2
 **********************
 DD1Dir will call FoFMem   1 times, MxPair=       110
 NAB=    55 NAA=     0 NBB=     0.
 DE(Z)= -0.65246110     E(Z)=     -614.53713845     Delta= 1.15D-06
 NORM(A)=   0.10924563D+01
 Iteration Nr.   3
 **********************
 DD1Dir will call FoFMem   1 times, MxPair=       110
 NAB=    55 NAA=     0 NBB=     0.
 DE(Z)= -0.65246014     E(Z)=     -614.53713748     Delta= 9.66D-07
 NORM(A)=   0.10924574D+01
 Iteration Nr.   4
 **********************
 DD1Dir will call FoFMem   1 times, MxPair=       110
 NAB=    55 NAA=     0 NBB=     0.
 DE(Z)= -0.65246031     E(Z)=     -614.53713765     Delta=-1.71D-07
 NORM(A)=   0.10924375D+01
 Iteration Nr.   5
 **********************
 DD1Dir will call FoFMem   1 times, MxPair=       110
 NAB=    55 NAA=     0 NBB=     0.
 DE(Z)= -0.65245553     E(Z)=     -614.53713287     Delta= 4.78D-06
 NORM(A)=   0.10858260D+01
 Iteration Nr.   6
 **********************
 DD1Dir will call FoFMem   1 times, MxPair=       110
 NAB=    55 NAA=     0 NBB=     0.
 DE(Z)= -0.65079729     E(Z)=     -614.53547464     Delta= 1.66D-03
 NORM(A)=   0.10858391D+01
 Iteration Nr.   7
 **********************
 DD1Dir will call FoFMem   1 times, MxPair=       110
 NAB=    55 NAA=     0 NBB=     0.
 DE(Z)= -0.65079981     E(Z)=     -614.53547716     Delta=-2.52D-06
 NORM(A)=   0.10858421D+01
 Iteration Nr.   8
 **********************
 DD1Dir will call FoFMem   1 times, MxPair=       110
 NAB=    55 NAA=     0 NBB=     0.
 DE(Z)= -0.65080113     E(Z)=     -614.53547847     Delta=-1.32D-06
 NORM(A)=   0.10858409D+01
 Iteration Nr.   9
 **********************
 DD1Dir will call FoFMem   1 times, MxPair=       110
 NAB=    55 NAA=     0 NBB=     0.
 DE(Z)= -0.65080056     E(Z)=     -614.53547791     Delta= 5.69D-07
 NORM(A)=   0.10858404D+01
 Iteration Nr.  10
 **********************
 DD1Dir will call FoFMem   1 times, MxPair=       110
 NAB=    55 NAA=     0 NBB=     0.
 DE(Z)= -0.65080033     E(Z)=     -614.53547768     Delta= 2.28D-07
 NORM(A)=   0.10858403D+01
 Iteration Nr.  11
 **********************
 DD1Dir will call FoFMem   1 times, MxPair=       110
 NAB=    55 NAA=     0 NBB=     0.
 DE(Z)= -0.65080029     E(Z)=     -614.53547764     Delta= 3.81D-08
 NORM(A)=   0.10858404D+01
 Iteration Nr.  12
 **********************
 DD1Dir will call FoFMem   1 times, MxPair=       110
 NAB=    55 NAA=     0 NBB=     0.
 DE(Z)= -0.65080028     E(Z)=     -614.53547762     Delta= 1.53D-08
 NORM(A)=   0.10858404D+01
 Iteration Nr.  13
 **********************
 DD1Dir will call FoFMem   1 times, MxPair=       110
 NAB=    55 NAA=     0 NBB=     0.
 DE(Z)= -0.65080029     E(Z)=     -614.53547764     Delta=-1.36D-08
 NORM(A)=   0.10858404D+01
 Iteration Nr.  14
 **********************
 DD1Dir will call FoFMem   1 times, MxPair=       110
 NAB=    55 NAA=     0 NBB=     0.
 DE(Z)= -0.65080029     E(Z)=     -614.53547763     Delta= 3.37D-09
 NORM(A)=   0.10858404D+01
 Z-amplitudes converged.
 Discarding MO integrals.
          IDoAtm=1111
          Differentiating once with respect to electric field.
                with respect to dipole field.
          Differentiating once with respect to nuclear coordinates.
 Keep R1 ints in memory in canonical form, NReq=19347640.
          There are     1 degrees of freedom in the 1st order CPHF.  IDoFFX=0 NUNeed=     1.
 LinEq1:  Iter=  0 NonCon=     1 RMS=2.76D-03 Max=3.10D-02 NDo=     1
 AX will form     1 AO Fock derivatives at one time.
 LinEq1:  Iter=  1 NonCon=     1 RMS=8.92D-04 Max=1.00D-02 NDo=     1
 LinEq1:  Iter=  2 NonCon=     1 RMS=2.76D-04 Max=5.39D-03 NDo=     1
 LinEq1:  Iter=  3 NonCon=     1 RMS=9.84D-05 Max=1.38D-03 NDo=     1
 LinEq1:  Iter=  4 NonCon=     1 RMS=2.77D-05 Max=3.66D-04 NDo=     1
 LinEq1:  Iter=  5 NonCon=     1 RMS=8.33D-06 Max=8.36D-05 NDo=     1
 LinEq1:  Iter=  6 NonCon=     1 RMS=2.06D-06 Max=2.12D-05 NDo=     1
 LinEq1:  Iter=  7 NonCon=     1 RMS=5.51D-07 Max=4.68D-06 NDo=     1
 LinEq1:  Iter=  8 NonCon=     1 RMS=1.32D-07 Max=2.17D-06 NDo=     1
 LinEq1:  Iter=  9 NonCon=     1 RMS=2.47D-08 Max=3.54D-07 NDo=     1
 LinEq1:  Iter= 10 NonCon=     1 RMS=6.06D-09 Max=8.04D-08 NDo=     1
 LinEq1:  Iter= 11 NonCon=     1 RMS=1.12D-09 Max=1.08D-08 NDo=     1
 LinEq1:  Iter= 12 NonCon=     1 RMS=2.23D-10 Max=2.38D-09 NDo=     1
 LinEq1:  Iter= 13 NonCon=     0 RMS=4.69D-11 Max=4.09D-10 NDo=     1
 Linear equations converged to 1.000D-10 1.000D-09 after    13 iterations.
 End of Minotr F.D. properties file   721 does not exist.
 End of Minotr F.D. properties file   722 does not exist.
 End of Minotr F.D. properties file   788 does not exist.

 **********************************************************************

            Population analysis using the CC Density.

 **********************************************************************

 Alpha  occ. eigenvalues -- -104.89123 -26.33494 -15.67494 -10.61228  -8.07956
 Alpha  occ. eigenvalues --   -8.07683  -8.07626  -1.64274  -1.24030  -1.01533
 Alpha  occ. eigenvalues --   -0.76968  -0.72369  -0.71266  -0.61202  -0.55064
 Alpha  occ. eigenvalues --   -0.49314  -0.38340
 Alpha virt. eigenvalues --    0.11320   0.18243   0.26708   0.45789   0.47119
 Alpha virt. eigenvalues --    0.48222   0.51333   0.58707   0.62329   0.62699
 Alpha virt. eigenvalues --    0.62822   0.63358   0.68441   0.70096   0.82728
 Alpha virt. eigenvalues --    0.87002   0.92510   1.01066   1.05783   1.08250
 Alpha virt. eigenvalues --    1.12623   1.22087   1.39178   1.43976   1.54328
 Alpha virt. eigenvalues --    1.69603   1.74210   1.83929   2.02004   2.19340
 Alpha virt. eigenvalues --    2.20092   2.22412   2.23152   2.26486   2.30010
 Alpha virt. eigenvalues --    2.35529   2.38425   2.38797   2.42360   2.43171
 Alpha virt. eigenvalues --    2.54169   2.54423   2.55068   2.59719   2.62300
 Alpha virt. eigenvalues --    2.70116   2.72141   2.86407   3.14015   3.35594
 Alpha virt. eigenvalues --    3.37155   3.54176   3.63105   3.74602   3.87295
 Alpha virt. eigenvalues --    3.99977   4.10872   4.16548   4.27999   4.40306
 Alpha virt. eigenvalues --    4.48888   4.51970   4.53331   4.73091   4.74556
 Alpha virt. eigenvalues --    4.98493   5.12202   5.16299   5.24520   5.32100
 Alpha virt. eigenvalues --    5.32369   5.56946   5.93622   5.99594   6.12884
 Alpha virt. eigenvalues --    6.32106   6.59872   7.38318   7.38482   7.44239
 Alpha virt. eigenvalues --    7.48270   7.77386   7.89593   8.08052   8.88252
 Alpha virt. eigenvalues --    8.89514   9.26741   9.36158   9.53129  11.24897
 Alpha virt. eigenvalues --   11.94656
          Condensed to atoms (all electrons):
               1          2          3          4
     1  N    6.436692   0.145799   0.398541   0.119902
     2  Cl   0.145799  16.866377  -0.029178  -0.033211
     3  H    0.398541  -0.029178   0.445049  -0.026592
     4  F    0.119902  -0.033211  -0.026592   9.101359
 Mulliken charges:
               1
     1  N   -0.100934
     2  Cl   0.050213
     3  H    0.212180
     4  F   -0.161459
 Sum of Mulliken charges =  -0.00000
 Mulliken charges with hydrogens summed into heavy atoms:
               1
     1  N    0.111246
     2  Cl   0.050213
     4  F   -0.161459
 Electronic spatial extent (au):  <R**2>=            217.9519
 Charge=             -0.0000 electrons
 Dipole moment (field-independent basis, Debye):
    X=             -0.3317    Y=              1.5776    Z=              0.0003  Tot=              1.6121
 Quadrupole moment (field-independent basis, Debye-Ang):
   XX=            -23.0210   YY=            -20.1360   ZZ=            -24.4114
   XY=              2.0869   XZ=              0.0002   YZ=              0.0004
 Traceless Quadrupole moment (field-independent basis, Debye-Ang):
   XX=             -0.4982   YY=              2.3868   ZZ=             -1.8886
   XY=              2.0869   XZ=              0.0002   YZ=              0.0004
 Octapole moment (field-independent basis, Debye-Ang**2):
  XXX=              3.1049  YYY=              4.1002  ZZZ=              0.0003  XYY=              4.9307
  XXY=             -0.4090  XXZ=              0.0001  XZZ=              2.9015  YZZ=             -1.0164
  YYZ=              0.0006  XYZ=              0.0003
 Hexadecapole moment (field-independent basis, Debye-Ang**3):
 XXXX=           -169.1297 YYYY=            -32.1346 ZZZZ=            -23.3969 XXXY=              2.2283
 XXXZ=              0.0003 YYYX=              1.8759 YYYZ=              0.0009 ZZZX=              0.0003
 ZZZY=              0.0003 XXYY=            -33.4631 XXZZ=            -34.5592 YYZZ=            -11.4489
 XXYZ=              0.0003 YYXZ=              0.0004 ZZXY=             -1.1813
 N-N= 1.037596183940D+02 E-N=-1.669686460355D+03  KE= 6.145245893459D+02
 Calling FoFJK, ICntrl=  10002127 FMM=F ISym2X=0 I1Cent= 0 IOpClX= 0 NMat=1 NMatS=1 NMatT=0.
 -------------------------------------------------------------------
 Center     Atomic                   Forces (Hartrees/Bohr)
 Number     Number              X              Y              Z
 -------------------------------------------------------------------
      1        7          -0.000082657   -0.001524844   -0.000023014
      2       17           0.000251839    0.000219937    0.000006131
      3        1           0.000195521    0.000845288    0.000010317
      4        9          -0.000364703    0.000459619    0.000006566
 -------------------------------------------------------------------
 Cartesian Forces:  Max     0.001524844 RMS     0.000543253
 NDeriv=     12 NFrqRd=  0 NDerD0=      0 MskFDP=       0 MskDFD=       0 MskDF0=       0
 Re-enter D2Numr:  atom      1 IXYZ=2 step-up   number 1
 Standard basis: CC-pVTZ (5D, 7F)
   108 basis functions,   215 primitive gaussians,   124 cartesian basis functions
    17 alpha electrons       17 beta electrons
       nuclear repulsion energy       103.7935733772 Hartrees.
 NAtoms=    4 NActive=    4 NUniq=    4 SFac= 1.00D+00 NAtFMM=   60 NAOKFM=F Big=F
 Integral buffers will be    131072 words long.
 Raffenetti 1 integral format.
 Two-electron integral symmetry is turned off.
 One-electron integrals computed using PRISM.
 NBasis=   108 RedAO= T EigKep=  2.32D-03  NBF=   108
 NBsUse=   108 1.00D-06 EigRej= -1.00D+00 NBFU=   108
 Initial guess from the checkpoint file:  "/tmp/webmo-1487/62/Gau-2831.chk"
 B after Tr=    -0.000000   -0.000389    0.000000
         Rot=    1.000000    0.000000   -0.000000    0.000036 Ang=   0.00 deg.
 Keep R1 ints in memory in canonical form, NReq=19346084.
 Requested convergence on RMS density matrix=1.00D-08 within 128 cycles.
 Requested convergence on MAX density matrix=1.00D-06.
 Requested convergence on             energy=1.00D-06.
 No special actions if energy rises.
 SCF Done:  E(RHF) =  -613.884715339     A.U. after    8 cycles
            NFock=  8  Conv=0.22D-08     -V/T= 2.0003
 ExpMin= 1.03D-01 ExpMax= 4.56D+05 ExpMxC= 1.44D+03 IAcc=3 IRadAn=         5 AccDes= 0.00D+00
 HarFok:  IExCor=  205 AccDes= 0.00D+00 IRadAn=         5 IDoV=-2 UseB2=F ITyADJ=14
 ICtDFT= 12500011 ScaDFX=  1.000000  1.000000  1.000000  1.000000
 Range of M.O.s used for correlation:     8   108
 NBasis=   108 NAE=    17 NBE=    17 NFC=     7 NFV=     0
 NROrb=    101 NOA=    10 NOB=    10 NVA=    91 NVB=    91
 Semi-Direct transformation.
 ModeAB=           2 MOrb=            10 LenV=     104382943
 LASXX=      4780810 LTotXX=     4780810 LenRXX=     4780810
 LTotAB=     4920665 MaxLAS=     7827500 LenRXY=     7827500
 NonZer=     9561620 LenScr=    15093760 LnRSAI=           0
 LnScr1=           0 LExtra=           0 Total=     27702070
 MaxDsk=          -1 SrtSym=           F ITran=            4
 JobTyp=0 Pass  1:  I=   1 to  10.
 (rs|ai) integrals will be sorted in core.
 Spin components of T(2) and E(2):
     alpha-alpha T2 =       0.2228220682D-01 E2=     -0.8236398366D-01
     alpha-beta  T2 =       0.1247203278D+00 E2=     -0.4839674367D+00
     beta-beta   T2 =       0.2228220682D-01 E2=     -0.8236398366D-01
 ANorm=    0.1081334704D+01
 E2 =    -0.6486954041D+00 EUMP2 =    -0.61453341074337D+03
 Keep R2 and R3 ints in memory in canonical form, NReq=36676839.
 CIDS: In Core Option IDoMem=           1.
 Iterations=  50 Convergence= 0.100D-07
 Produce multiple copies of IABC intergrals
 Iteration Nr.   1
 **********************
 DD1Dir will call FoFMem   1 times, MxPair=       110
 NAB=    55 NAA=     0 NBB=     0.
 MP4(R+Q)=  0.14084021D-01
 E3=       -0.18658216D-01        EUMP3=      -0.61455206896D+03
 E4(DQ)=    0.42822454D-03        UMP4(DQ)=   -0.61455164074D+03
 E4(SDQ)=  -0.49144722D-02        UMP4(SDQ)=  -0.61455698343D+03
 DE(Corr)= -0.65310213     E(Corr)=     -614.53781746    
 NORM(A)=   0.10849364D+01
 Iteration Nr.   2
 **********************
 DD1Dir will call FoFMem   1 times, MxPair=       110
 NAB=    55 NAA=     0 NBB=     0.
 DE(Corr)= -0.66854382     E(CORR)=     -614.55325916     Delta=-1.54D-02
 NORM(A)=   0.10908364D+01
 Iteration Nr.   3
 **********************
 DD1Dir will call FoFMem   1 times, MxPair=       110
 NAB=    55 NAA=     0 NBB=     0.
 DE(Corr)= -0.66912130     E(CORR)=     -614.55383664     Delta=-5.77D-04
 NORM(A)=   0.10919962D+01
 Iteration Nr.   4
 **********************
 DD1Dir will call FoFMem   1 times, MxPair=       110
 NAB=    55 NAA=     0 NBB=     0.
 DE(Corr)= -0.67022496     E(CORR)=     -614.55494029     Delta=-1.10D-03
 NORM(A)=   0.10923057D+01
 Iteration Nr.   5
 **********************
 DD1Dir will call FoFMem   1 times, MxPair=       110
 NAB=    55 NAA=     0 NBB=     0.
 DE(Corr)= -0.67032981     E(CORR)=     -614.55504515     Delta=-1.05D-04
 NORM(A)=   0.10924124D+01
 Iteration Nr.   6
 **********************
 DD1Dir will call FoFMem   1 times, MxPair=       110
 NAB=    55 NAA=     0 NBB=     0.
 DE(Corr)= -0.67034398     E(CORR)=     -614.55505932     Delta=-1.42D-05
 NORM(A)=   0.10924262D+01
 Iteration Nr.   7
 **********************
 DD1Dir will call FoFMem   1 times, MxPair=       110
 NAB=    55 NAA=     0 NBB=     0.
 DE(Corr)= -0.67034524     E(CORR)=     -614.55506058     Delta=-1.26D-06
 NORM(A)=   0.10924277D+01
 Iteration Nr.   8
 **********************
 DD1Dir will call FoFMem   1 times, MxPair=       110
 NAB=    55 NAA=     0 NBB=     0.
 DE(Corr)= -0.67034410     E(CORR)=     -614.55505944     Delta= 1.14D-06
 NORM(A)=   0.10924306D+01
 Iteration Nr.   9
 **********************
[...]
 NAB=    55 NAA=     0 NBB=     0.
 DE(Z)= -0.65078968     E(Z)=     -614.53548750     Delta= 3.99D-08
 NORM(A)=   0.10858283D+01
 Iteration Nr.  12
 **********************
 DD1Dir will call FoFMem   1 times, MxPair=       110
 NAB=    55 NAA=     0 NBB=     0.
 DE(Z)= -0.65078969     E(Z)=     -614.53548750     Delta=-2.83D-09
 NORM(A)=   0.10858283D+01
 Z-amplitudes converged.
 Discarding MO integrals.
          IDoAtm=1111
          Differentiating once with respect to electric field.
                with respect to dipole field.
          Differentiating once with respect to nuclear coordinates.
 Keep R1 ints in memory in canonical form, NReq=19347640.
          There are     1 degrees of freedom in the 1st order CPHF.  IDoFFX=0 NUNeed=     1.
 LinEq1:  Iter=  0 NonCon=     1 RMS=2.76D-03 Max=3.10D-02 NDo=     1
 AX will form     1 AO Fock derivatives at one time.
 LinEq1:  Iter=  1 NonCon=     1 RMS=8.92D-04 Max=1.01D-02 NDo=     1
 LinEq1:  Iter=  2 NonCon=     1 RMS=2.76D-04 Max=5.39D-03 NDo=     1
 LinEq1:  Iter=  3 NonCon=     1 RMS=9.83D-05 Max=1.38D-03 NDo=     1
 LinEq1:  Iter=  4 NonCon=     1 RMS=2.76D-05 Max=3.64D-04 NDo=     1
 LinEq1:  Iter=  5 NonCon=     1 RMS=8.31D-06 Max=8.37D-05 NDo=     1
 LinEq1:  Iter=  6 NonCon=     1 RMS=2.05D-06 Max=2.11D-05 NDo=     1
 LinEq1:  Iter=  7 NonCon=     1 RMS=5.50D-07 Max=4.68D-06 NDo=     1
 LinEq1:  Iter=  8 NonCon=     1 RMS=1.32D-07 Max=2.16D-06 NDo=     1
 LinEq1:  Iter=  9 NonCon=     1 RMS=2.46D-08 Max=3.54D-07 NDo=     1
 LinEq1:  Iter= 10 NonCon=     1 RMS=6.06D-09 Max=8.03D-08 NDo=     1
 LinEq1:  Iter= 11 NonCon=     1 RMS=1.12D-09 Max=1.06D-08 NDo=     1
 LinEq1:  Iter= 12 NonCon=     1 RMS=2.30D-10 Max=2.34D-09 NDo=     1
 LinEq1:  Iter= 13 NonCon=     0 RMS=5.43D-11 Max=8.35D-10 NDo=     1
 Linear equations converged to 1.000D-10 1.000D-09 after    13 iterations.
 End of Minotr F.D. properties file   721 does not exist.
 End of Minotr F.D. properties file   722 does not exist.
 End of Minotr F.D. properties file   788 does not exist.

 **********************************************************************

            Population analysis using the CC Density.

 **********************************************************************

 Alpha  occ. eigenvalues -- -104.89116 -26.33499 -15.67491 -10.61222  -8.07950
 Alpha  occ. eigenvalues --   -8.07678  -8.07621  -1.64305  -1.24033  -1.01506
 Alpha  occ. eigenvalues --   -0.76972  -0.72388  -0.71288  -0.61191  -0.55063
 Alpha  occ. eigenvalues --   -0.49311  -0.38323
 Alpha virt. eigenvalues --    0.11324   0.18253   0.26747   0.45792   0.47120
 Alpha virt. eigenvalues --    0.48222   0.51320   0.58697   0.62331   0.62714
 Alpha virt. eigenvalues --    0.62831   0.63357   0.68441   0.70099   0.82712
 Alpha virt. eigenvalues --    0.87028   0.92500   1.01065   1.05792   1.08244
 Alpha virt. eigenvalues --    1.12637   1.22070   1.39210   1.43935   1.54306
 Alpha virt. eigenvalues --    1.69657   1.74200   1.83827   2.02027   2.19340
 Alpha virt. eigenvalues --    2.20099   2.22413   2.23156   2.26504   2.30004
 Alpha virt. eigenvalues --    2.35542   2.38432   2.38800   2.42398   2.43155
 Alpha virt. eigenvalues --    2.54172   2.54443   2.55093   2.59748   2.62326
 Alpha virt. eigenvalues --    2.70172   2.72180   2.86482   3.14071   3.35596
 Alpha virt. eigenvalues --    3.37133   3.54143   3.63079   3.74581   3.87229
 Alpha virt. eigenvalues --    4.00017   4.10846   4.16483   4.27913   4.40212
 Alpha virt. eigenvalues --    4.48810   4.52016   4.53345   4.73100   4.74527
 Alpha virt. eigenvalues --    4.98518   5.12243   5.16343   5.24547   5.32155
 Alpha virt. eigenvalues --    5.32394   5.56881   5.93344   5.99232   6.12622
 Alpha virt. eigenvalues --    6.31961   6.59944   7.38309   7.38472   7.44261
 Alpha virt. eigenvalues --    7.48301   7.77494   7.89679   8.08129   8.88256
 Alpha virt. eigenvalues --    8.89519   9.26809   9.36215   9.53026  11.24485
 Alpha virt. eigenvalues --   11.94930
          Condensed to atoms (all electrons):
               1          2          3          4
     1  N    6.437138   0.145645   0.398332   0.119788
     2  Cl   0.145645  16.866677  -0.029265  -0.033168
     3  H    0.398332  -0.029265   0.445550  -0.026685
     4  F    0.119788  -0.033168  -0.026685   9.101340
 Mulliken charges:
               1
     1  N   -0.100904
     2  Cl   0.050111
     3  H    0.212069
     4  F   -0.161275
 Sum of Mulliken charges =  -0.00000
 Mulliken charges with hydrogens summed into heavy atoms:
               1
     1  N    0.111165
     2  Cl   0.050111
     4  F   -0.161275
 Electronic spatial extent (au):  <R**2>=            217.9262
 Charge=             -0.0000 electrons
 Dipole moment (field-independent basis, Debye):
    X=             -0.3299    Y=              1.5777    Z=              0.0002  Tot=              1.6118
 Quadrupole moment (field-independent basis, Debye-Ang):
   XX=            -23.0210   YY=            -20.1370   ZZ=            -24.4114
   XY=              2.0853   XZ=              0.0002   YZ=              0.0002
 Traceless Quadrupole moment (field-independent basis, Debye-Ang):
   XX=             -0.4979   YY=              2.3861   ZZ=             -1.8882
   XY=              2.0853   XZ=              0.0002   YZ=              0.0002
 Octapole moment (field-independent basis, Debye-Ang**2):
  XXX=              3.1073  YYY=              4.1147  ZZZ=              0.0140  XYY=              4.9322
  XXY=             -0.4014  XXZ=              0.0064  XZZ=              2.9030  YZZ=             -1.0112
  YYZ=              0.0057  XYZ=             -0.0003
 Hexadecapole moment (field-independent basis, Debye-Ang**3):
 XXXX=           -169.1202 YYYY=            -32.1115 ZZZZ=            -23.3972 XXXY=              2.2284
 XXXZ=              0.0213 YYYX=              1.8800 YYYZ=             -0.0030 ZZZX=              0.0213
 ZZZY=             -0.0052 XXYY=            -33.4635 XXZZ=            -34.5595 YYZZ=            -11.4439
 XXYZ=             -0.0015 YYXZ=              0.0072 ZZXY=             -1.1798
 N-N= 1.037765857447D+02 E-N=-1.669720722570D+03  KE= 6.145248783718D+02
 Calling FoFJK, ICntrl=  10002127 FMM=F ISym2X=0 I1Cent= 0 IOpClX= 0 NMat=1 NMatS=1 NMatT=0.
 -------------------------------------------------------------------
 Center     Atomic                   Forces (Hartrees/Bohr)
 Number     Number              X              Y              Z
 -------------------------------------------------------------------
      1        7           0.000066011   -0.000025063    0.000063150
      2       17           0.000037879    0.000038480   -0.000016930
      3        1          -0.000046119   -0.000069616   -0.000028096
      4        9          -0.000057771    0.000056199   -0.000018124
 -------------------------------------------------------------------
 Cartesian Forces:  Max     0.000069616 RMS     0.000047225
 NDeriv=     12 NFrqRd=  0 NDerD0=      0 MskFDP=       0 MskDFD=       0 MskDF0=       0
 Re-enter D2Numr:  atom      4 IXYZ=3 step-down number 1
 Maximum difference in off-diagonal FC elements:
 I=  5 J=  1 Difference=    2.8193717184D-05
 Max difference between analytic and numerical forces:
 I=  8 Difference=    1.3807020946D-06
 Full mass-weighted force constant matrix:
 Low frequencies ----1070.1636   -1.6420   -0.5395   -0.0141    4.5302    6.7564
 Low frequencies ---   16.0818  396.3667  867.1132
 ******    1 imaginary frequencies (negative Signs) ****** 
 Diagonal vibrational polarizability:
        1.5470167       0.6882931       4.4549814
 Harmonic frequencies (cm**-1), IR intensities (KM/Mole), Raman scattering
 activities (A**4/AMU), depolarization ratios for plane and unpolarized
 incident light, reduced masses (AMU), force constants (mDyne/A),
 and normal coordinates:
                      1                      2                      3
                      A                      A                      A
 Frequencies --  -1070.1636               396.3667               867.1132
 Red. masses --      1.3700                16.7718                 7.6301
 Frc consts  --      0.9244                 1.5525                 3.3801
 IR Inten    --    189.5890                 4.8041                 0.8237
  Atom  AN      X      Y      Z        X      Y      Z        X      Y      Z
     1   7     0.00   0.00  -0.16     0.04  -0.46   0.00     0.35   0.45   0.00
     2  17    -0.00  -0.00   0.02    -0.37   0.11  -0.00    -0.21  -0.12   0.00
     3   1    -0.00  -0.00   0.99    -0.19  -0.40   0.00     0.65   0.41  -0.00
     4   9    -0.00  -0.00   0.03     0.65   0.15  -0.00     0.09  -0.13   0.00
                      4                      5                      6
                      A                      A                      A
 Frequencies --   1143.0909              1370.4048              3798.5958
 Red. masses --     10.3350                 1.1251                 1.0817
 Frc consts  --      7.9565                 1.2449                 9.1957
 IR Inten    --     53.7116                 7.7996                88.4350
  Atom  AN      X      Y      Z        X      Y      Z        X      Y      Z
     1   7     0.56  -0.33   0.00    -0.09  -0.00  -0.00    -0.02  -0.07  -0.00
     2  17    -0.06  -0.03   0.00     0.00  -0.01  -0.00     0.00   0.00  -0.00
     3   1     0.50  -0.34   0.00     0.96  -0.27   0.00     0.25   0.97   0.00
     4   9    -0.33   0.31  -0.00     0.01   0.03   0.00    -0.00   0.00  -0.00

 -------------------
 - Thermochemistry -
 -------------------
 Temperature   298.150 Kelvin.  Pressure   1.00000 Atm.
 Atom     1 has atomic number  7 and mass  14.00307
 Atom     2 has atomic number 17 and mass  34.96885
 Atom     3 has atomic number  1 and mass   1.00783
 Atom     4 has atomic number  9 and mass  18.99840
 Molecular mass:    68.97816 amu.
 Principal axes and moments of inertia in atomic units:
                           1         2         3
     Eigenvalues --    32.22161 305.66043 337.88204
           X            0.99981   0.01975   0.00000
           Y           -0.01975   0.99981   0.00002
           Z           -0.00000  -0.00002   1.00000
 This molecule is an asymmetric top.
 Rotational symmetry number  1.
 Rotational temperatures (Kelvin)      2.68807     0.28337     0.25634
 Rotational constants (GHZ):          56.01027     5.90440     5.34134
    1 imaginary frequencies ignored.
 Zero-point vibrational energy      45312.0 (Joules/Mol)
                                   10.82982 (Kcal/Mol)
 Warning -- explicit consideration of   1 degrees of freedom as
           vibrations may cause significant error
 Vibrational temperatures:    570.28  1247.58  1644.65  1971.71  5465.33
          (Kelvin)
 
 Zero-point correction=                           0.017258 (Hartree/Particle)
 Thermal correction to Energy=                    0.020494
 Thermal correction to Enthalpy=                  0.021439
 Thermal correction to Gibbs Free Energy=        -0.008278
 Sum of electronic and zero-point Energies=           -614.537803
 Sum of electronic and thermal Energies=              -614.534567
 Sum of electronic and thermal Enthalpies=            -614.533623
 Sum of electronic and thermal Free Energies=         -614.563339
 
                     E (Thermal)             CV                S
                      KCal/Mol        Cal/Mol-Kelvin    Cal/Mol-Kelvin
 Total                   12.860              8.348             62.543
 Electronic               0.000              0.000              0.000
 Translational            0.889              2.981             38.611
 Rotational               0.889              2.981             22.725
 Vibrational             11.083              2.387              1.208
 Vibration     1          0.763              1.478              0.976
                       Q            Log10(Q)             Ln(Q)
 Total Bot       0.641979D+04          3.807521          8.767141
 Total V=0       0.556976D+12         11.745837         27.045788
 Vib (Bot)       0.138063D-07         -7.859922        -18.098139
 Vib (Bot)    1  0.450867D+00         -0.345951         -0.796582
 Vib (V=0)       0.119783D+01          0.078394          0.180509
 Vib (V=0)    1  0.117326D+01          0.069395          0.159788
 Electronic      0.100000D+01          0.000000          0.000000
 Translational   0.225176D+08          7.352521         16.929806
 Rotational      0.206501D+05          4.314921          9.935474
 ***** Axes restored to original set *****
 -------------------------------------------------------------------
 Center     Atomic                   Forces (Hartrees/Bohr)
 Number     Number              X              Y              Z
 -------------------------------------------------------------------
      1        7          -0.000048566    0.000022875   -0.000050920
      2       17           0.000020682   -0.000006132   -0.000049892
      3        1          -0.000046123   -0.000010174    0.000069639
      4        9           0.000074007   -0.000006569    0.000031173
 -------------------------------------------------------------------
 Cartesian Forces:  Max     0.000074007 RMS     0.000042819
 -----------------------------------------------------------------------------------------------
                       Internal Coordinate Forces (Hartree/Bohr or radian)
  Cent   Atom   N1       Length/X         N2         Alpha/Y        N3         Beta/Z          J
 -----------------------------------------------------------------------------------------------
      1  N 
      2  Cl       1  -0.000050(     1)
      3  H        1  -0.000079(     2)      2  -0.000052(     4)
      4  F        1  -0.000080(     3)      2   0.000013(     5)      3  -0.000015(     6)     0
 -----------------------------------------------------------------------------------------------
 Internal  Forces:  Max     0.000080146 RMS     0.000055077

 GradGradGradGradGradGradGradGradGradGradGradGradGradGradGradGradGradGrad
 Berny optimization.
 Search for a local minimum.
 Step number   1 out of a maximum of    2
 All quantities printed in internal units (Hartrees-Bohrs-Radians)
 Second derivative matrix not updated -- analytic derivatives used.
 The second derivative matrix:
                          B1        B2        B3        A1        A2
           B1           0.32040
           B2          -0.00560   0.51138
           B3           0.02925  -0.00305   0.41056
           A1           0.03578  -0.00081  -0.05894   0.23427
           A2           0.03891  -0.00127  -0.01080   0.14145   0.36515
           D1           0.00001   0.00001   0.00001  -0.00005  -0.00003
                          D1
           D1          -0.07009
 ITU=  0
     Eigenvalues ---   -0.07009   0.13542   0.29158   0.41571   0.48726
     Eigenvalues ---    0.51179
 Eigenvalue     1 is  -7.01D-02 should be greater than     0.000000 Eigenvector:
                          D1        A1        B1        A2        B2
   1                    1.00000   0.00015  -0.00005   0.00003  -0.00002
                          B3
   1                   -0.00000
 Angle between quadratic step and forces=  34.85 degrees.
 Linear search not attempted -- first point.
 Variable       Old X    -DE/DX   Delta X   Delta X   Delta X     New X
                                 (Linear)    (Quad)   (Total)
    B1        3.12639  -0.00005   0.00000  -0.00012  -0.00012   3.12627
    B2        1.88192  -0.00008   0.00000  -0.00016  -0.00016   1.88176
    B3        2.58234  -0.00008   0.00000  -0.00024  -0.00024   2.58211
    A1        2.22210  -0.00005   0.00000  -0.00037  -0.00037   2.22172
    A2        2.03200   0.00001   0.00000   0.00019   0.00019   2.03219
    D1        3.14138  -0.00002   0.00000  -0.00022  -0.00022   3.14116
         Item               Value     Threshold  Converged?
 Maximum Force            0.000080     0.000450     YES
 RMS     Force            0.000055     0.000300     YES
 Maximum Displacement     0.000375     0.001800     YES
 RMS     Displacement     0.000230     0.001200     YES
 Predicted change in Energy=-3.445414D-08
 Optimization completed.
    -- Stationary point found.
                       ----------------------------
                       !   Optimized Parameters   !
                       ! (Angstroms and Degrees)  !
 ----------------------                            ----------------------
 !      Name          Value   Derivative information (Atomic Units)     !
 ------------------------------------------------------------------------
 !       B1          1.6544   -DE/DX =    0.0                           !
 !       B2          0.9959   -DE/DX =   -0.0001                        !
 !       B3          1.3665   -DE/DX =   -0.0001                        !
 !       A1        127.3168   -DE/DX =   -0.0001                        !
 !       A2        116.4251   -DE/DX =    0.0                           !
 !       D1        179.9876   -DE/DX =    0.0                           !
 ------------------------------------------------------------------------
 GradGradGradGradGradGradGradGradGradGradGradGradGradGradGradGradGradGrad

 Unable to Open any file for archive entry.
 1\1\GINC-LAPTOP-P4FAIH0F\Freq\RCCSD-FC\CC-pVTZ\Cl1F1H1N1\RKDQL\31-Jan-
 2024\1\\#N CCSD/cc-pVTZ FREQ Geom=Connectivity\\ts\\0,1\N\Cl,1,B1\H,1,
 B2,2,A1\F,1,B3,2,A2,3,D1,0\\B1=1.65441436\B2=0.99586838\B3=1.3665177\A
 1=127.3167591\A2=116.4250973\D1=179.9875507\\Version=ES64L-G16RevC.01\
 State=1-A\HF=-613.8846978\MP2=-614.5334105\MP3=-614.5520677\MP4D=-614.
 5657284\MP4DQ=-614.5516394\MP4SDQ=-614.5569863\CCSD=-614.5550615\RMSD=
 6.765e-09\RMSF=4.282e-05\ZeroPoint=0.0172584\Thermal=0.0204944\ETot=-6
 14.5345671\HTot=-614.5336229\GTot=-614.5633393\Dipole=0.6221874,-0.000
 0047,-0.1225718\DipoleDeriv=0.2861162,0.0001321,0.5065781,0.0001469,-0
 .5606489,0.0001391,0.3217059,0.0001189,0.2672869,-0.0632882,-0.0000309
 ,0.0021792,-0.0000279,0.1211485,-0.0000064,-0.0737013,-0.0000343,0.117
 7449,0.207268,-0.0000264,-0.1890231,0.0000029,0.4300608,-0.0000279,-0.
 1026725,-0.0000462,0.0843176,-0.4301456,-0.0000748,-0.3198541,-0.00008
 65,0.0093149,-0.0000903,-0.1453318,-0.0000384,-0.4696936\PG=C01 [X(Cl1
 F1H1N1)]\NImag=1\\0.69432345,0.00009625,-0.15832326,-0.15408530,0.0000
 4905,0.61231939,-0.04039837,-0.00001259,0.01801561,0.03242245,-0.00001
 131,0.04243189,0.00000280,0.00000753,-0.01135825,0.03446696,-0.0000102
 8,-0.28215713,0.00099735,0.00000287,0.32039945,-0.33480235,-0.00001611
 ,0.22171070,0.00946612,0.00000420,-0.01597430,0.34819600,-0.00000269,0
 .07037598,-0.00002140,0.00000206,-0.01887203,0.00000711,0.00000821,-0.
 03125309,0.23600267,-0.00000757,-0.22620150,0.01264541,-0.00000131,-0.
 01172640,-0.21451690,0.00001002,0.22937005,-0.31912111,-0.00006754,-0.
 08564399,-0.00147769,-0.00000042,-0.01948651,-0.02285417,-0.00000759,-
 0.03413325,0.34343324,-0.00008187,0.04552502,-0.00003241,0.00000376,-0
 .01220610,0.00000086,0.00000518,-0.02025046,-0.00000122,0.00007293,-0.
 01307401,-0.11638118,-0.00003117,-0.10396330,-0.03166288,-0.00000438,-
 0.02650840,0.00878410,0.00000426,0.00855408,0.13926151,0.00003276,0.12
 191642\\0.00004857,-0.00002288,0.00005092,-0.00002068,0.00000613,0.000
 04989,0.00004612,0.00001017,-0.00006964,-0.00007401,0.00000657,-0.0000
 3117\\\@
 The archive entry for this job was punched.


 FRICTION IS A DRAG,
 AND ENTROPY AIN'T WHAT IT USED TO BE.
 Job cpu time:       0 days  2 hours 11 minutes  8.5 seconds.
 Elapsed time:       0 days  2 hours 22 minutes 52.5 seconds.
 File lengths (MBytes):  RWF=   2058 Int=      0 D2E=      0 Chk=     40 Scr=      1
 Normal termination of Gaussian 16 at Wed Jan 31 18:34:13 2024.