 Entering Gaussian System, Link 0=/home/rkdql/gaussian_c01/g16/g16
 Initial command:
 /home/rkdql/gaussian_c01/g16/l1.exe "/tmp/webmo-1487/60/Gau-2698.inp" -scrdir="/tmp/webmo-1487/60/"
 Entering Link 1 = /home/rkdql/gaussian_c01/g16/l1.exe PID=      2700.
  
 Copyright (c) 1988-2019, Gaussian, Inc.  All Rights Reserved.
  
 This is part of the Gaussian(R) 16 program.  It is based on
 the Gaussian(R) 09 system (copyright 2009, Gaussian, Inc.),
 the Gaussian(R) 03 system (copyright 2003, Gaussian, Inc.),
 the Gaussian(R) 98 system (copyright 1998, Gaussian, Inc.),
 the Gaussian(R) 94 system (copyright 1995, Gaussian, Inc.),
 the Gaussian 92(TM) system (copyright 1992, Gaussian, Inc.),
 the Gaussian 90(TM) system (copyright 1990, Gaussian, Inc.),
 the Gaussian 88(TM) system (copyright 1988, Gaussian, Inc.),
 the Gaussian 86(TM) system (copyright 1986, Carnegie Mellon
 University), and the Gaussian 82(TM) system (copyright 1983,
 Carnegie Mellon University). Gaussian is a federally registered
 trademark of Gaussian, Inc.
  
 This software contains proprietary and confidential information,
 including trade secrets, belonging to Gaussian, Inc.
  
 This software is provided under written license and may be
 used, copied, transmitted, or stored only in accord with that
 written license.
  
 The following legend is applicable only to US Government
 contracts under FAR:
  
                    RESTRICTED RIGHTS LEGEND
  
 Use, reproduction and disclosure by the US Government is
 subject to restrictions as set forth in subparagraphs (a)
 and (c) of the Commercial Computer Software - Restricted
 Rights clause in FAR 52.227-19.
  
 Gaussian, Inc.
 340 Quinnipiac St., Bldg. 40, Wallingford CT 06492
  
  
 ---------------------------------------------------------------
 Warning -- This program may not be used in any manner that
 competes with the business of Gaussian, Inc. or will provide
 assistance to any competitor of Gaussian, Inc.  The licensee
 of this program is prohibited from giving any competitor of
 Gaussian, Inc. access to this program.  By using this program,
 the user acknowledges that Gaussian, Inc. is engaged in the
 business of creating and licensing software in the field of
 computational chemistry and represents and warrants to the
 licensee that it is not a competitor of Gaussian, Inc. and that
 it will not use this program in any manner prohibited above.
 ---------------------------------------------------------------
  

 Cite this work as:
 Gaussian 16, Revision C.01,
 M. J. Frisch, G. W. Trucks, H. B. Schlegel, G. E. Scuseria, 
 M. A. Robb, J. R. Cheeseman, G. Scalmani, V. Barone, 
 G. A. Petersson, H. Nakatsuji, X. Li, M. Caricato, A. V. Marenich, 
 J. Bloino, B. G. Janesko, R. Gomperts, B. Mennucci, H. P. Hratchian, 
 J. V. Ortiz, A. F. Izmaylov, J. L. Sonnenberg, D. Williams-Young, 
 F. Ding, F. Lipparini, F. Egidi, J. Goings, B. Peng, A. Petrone, 
 T. Henderson, D. Ranasinghe, V. G. Zakrzewski, J. Gao, N. Rega, 
 G. Zheng, W. Liang, M. Hada, M. Ehara, K. Toyota, R. Fukuda, 
 J. Hasegawa, M. Ishida, T. Nakajima, Y. Honda, O. Kitao, H. Nakai, 
 T. Vreven, K. Throssell, J. A. Montgomery, Jr., J. E. Peralta, 
 F. Ogliaro, M. J. Bearpark, J. J. Heyd, E. N. Brothers, K. N. Kudin, 
 V. N. Staroverov, T. A. Keith, R. Kobayashi, J. Normand, 
 K. Raghavachari, A. P. Rendell, J. C. Burant, S. S. Iyengar, 
 J. Tomasi, M. Cossi, J. M. Millam, M. Klene, C. Adamo, R. Cammi, 
 J. W. Ochterski, R. L. Martin, K. Morokuma, O. Farkas, 
 J. B. Foresman, and D. J. Fox, Gaussian, Inc., Wallingford CT, 2019.
 
 ******************************************
 Gaussian 16:  ES64L-G16RevC.01  3-Jul-2019
                31-Jan-2024 
 ******************************************
 ------------------------------------
 #N CCSD/cc-pVTZ SP Geom=Connectivity
 ------------------------------------
 1/38=1,57=2,172=1/1;
 2/12=2,17=6,18=5,40=1/2;
 3/5=16,6=1,11=9,25=1,30=1/1,2,3;
 4//1;
 5/5=2,38=5/2;
 8/6=4,9=120000,10=1/1,4;
 9/5=7/13;
 6/7=2,8=2,9=2,10=2/1;
 99/5=1,9=1/99;
 -----
 ts_sp
 -----
 Symbolic Z-matrix:
 Charge =  0 Multiplicity = 1
 N
 Cl                   1    B1
 H                    1    B2       2    A1
 F                    1    B3       2    A2       3    D1       0
       Variables:
  B1                    1.65441                  
  B2                    0.99587                  
  B3                    1.36652                  
  A1                  127.31676                  
  A2                  116.4251                   
  D1                  179.98755                  
 
                          Input orientation:                          
 ---------------------------------------------------------------------
 Center     Atomic      Atomic             Coordinates (Angstroms)
 Number     Number       Type             X           Y           Z
 ---------------------------------------------------------------------
      1          7           0        0.000000    0.000000    0.000000
      2         17           0        0.000000    0.000000    1.654414
      3          1           0        0.792010    0.000000   -0.603716
      4          9           0       -1.223740   -0.000266   -0.608138
 ---------------------------------------------------------------------
                    Distance matrix (angstroms):
                    1          2          3          4
     1  N    0.000000
     2  Cl   1.654414   0.000000
     3  H    0.995868   2.392997   0.000000
     4  F    1.366518   2.572291   2.015755   0.000000
 Stoichiometry    ClFHN
 Framework group  C1[X(ClFHN)]
 Deg. of freedom     6
 Full point group                 C1      NOp   1
 Largest Abelian subgroup         C1      NOp   1
 Largest concise Abelian subgroup C1      NOp   1
                         Standard orientation:                         
 ---------------------------------------------------------------------
 Center     Atomic      Atomic             Coordinates (Angstroms)
 Number     Number       Type             X           Y           Z
 ---------------------------------------------------------------------
      1          7           0        0.479876    0.529735   -0.000031
      2         17           0       -1.043534   -0.115485    0.000003
      3          1           0        0.726904    1.494479    0.000096
      4          9           0        1.517116   -0.359930    0.000007
 ---------------------------------------------------------------------
 Rotational constants (GHZ):          56.0102714           5.9043992           5.3413351
 Standard basis: CC-pVTZ (5D, 7F)
 There are   124 symmetry adapted cartesian basis functions of A   symmetry.
 There are   108 symmetry adapted basis functions of A   symmetry.
   108 basis functions,   215 primitive gaussians,   124 cartesian basis functions
    17 alpha electrons       17 beta electrons
       nuclear repulsion energy       103.7765944877 Hartrees.
 NAtoms=    4 NActive=    4 NUniq=    4 SFac= 1.00D+00 NAtFMM=   60 NAOKFM=F Big=F
 Integral buffers will be    131072 words long.
 Raffenetti 1 integral format.
 Two-electron integral symmetry is turned on.
 One-electron integrals computed using PRISM.
 NBasis=   108 RedAO= T EigKep=  2.32D-03  NBF=   108
 NBsUse=   108 1.00D-06 EigRej= -1.00D+00 NBFU=   108
 ExpMin= 1.03D-01 ExpMax= 4.56D+05 ExpMxC= 1.44D+03 IAcc=3 IRadAn=         5 AccDes= 0.00D+00
 Harris functional with IExCor=  205 and IRadAn=       5 diagonalized for initial guess.
 HarFok:  IExCor=  205 AccDes= 0.00D+00 IRadAn=         5 IDoV= 1 UseB2=F ITyADJ=14
 ICtDFT=  3500011 ScaDFX=  1.000000  1.000000  1.000000  1.000000
 FoFCou: FMM=F IPFlag=           0 FMFlag=      100000 FMFlg1=           0
         NFxFlg=           0 DoJE=T BraDBF=F KetDBF=T FulRan=T
         wScrn=  0.000000 ICntrl=       500 IOpCl=  0 I1Cent=   200000004 NGrid=           0
         NMat0=    1 NMatS0=      1 NMatT0=    0 NMatD0=    1 NMtDS0=    0 NMtDT0=    0
 Petite list used in FoFCou.
 Keep R1 ints in memory in canonical form, NReq=19346340.
 Requested convergence on RMS density matrix=1.00D-08 within 128 cycles.
 Requested convergence on MAX density matrix=1.00D-06.
 Requested convergence on             energy=1.00D-06.
 No special actions if energy rises.
 SCF Done:  E(RHF) =  -613.884697817     A.U. after   12 cycles
            NFock= 12  Conv=0.68D-08     -V/T= 2.0003
 ExpMin= 1.03D-01 ExpMax= 4.56D+05 ExpMxC= 1.44D+03 IAcc=3 IRadAn=         5 AccDes= 0.00D+00
 HarFok:  IExCor=  205 AccDes= 0.00D+00 IRadAn=         5 IDoV=-2 UseB2=F ITyADJ=14
 ICtDFT= 12500011 ScaDFX=  1.000000  1.000000  1.000000  1.000000
 Range of M.O.s used for correlation:     8   108
 NBasis=   108 NAE=    17 NBE=    17 NFC=     7 NFV=     0
 NROrb=    101 NOA=    10 NOB=    10 NVA=    91 NVB=    91
 Semi-Direct transformation.
 ModeAB=           2 MOrb=            10 LenV=     104382943
 LASXX=      4780810 LTotXX=     4780810 LenRXX=     4780810
 LTotAB=     4920665 MaxLAS=     7827500 LenRXY=     7827500
 NonZer=     9561620 LenScr=    15093760 LnRSAI=           0
 LnScr1=           0 LExtra=           0 Total=     27702070
 MaxDsk=          -1 SrtSym=           F ITran=            4
 JobTyp=0 Pass  1:  I=   1 to  10.
 (rs|ai) integrals will be sorted in core.
 SymMOI:  orbitals are not symmetric.
 Spin components of T(2) and E(2):
     alpha-alpha T2 =       0.2228405454D-01 E2=     -0.8236189123D-01
     alpha-beta  T2 =       0.1247417798D+00 E2=     -0.4839888921D+00
     beta-beta   T2 =       0.2228405454D-01 E2=     -0.8236189123D-01
 ANorm=    0.1081346332D+01
 E2 =    -0.6487126745D+00 EUMP2 =    -0.61453341049143D+03
 Keep R2 and R3 ints in memory in canonical form, NReq=36676185.
 CIDS: In Core Option IDoMem=           1.
 Iterations=  50 Convergence= 0.100D-06
 Produce multiple copies of IABC intergrals
 Iteration Nr.   1
 **********************
 DD1Dir will call FoFMem   1 times, MxPair=       110
 NAB=    55 NAA=     0 NBB=     0.
 MP4(R+Q)=  0.14089009D-01
 E3=       -0.18657162D-01        EUMP3=      -0.61455206765D+03
 E4(DQ)=    0.42821351D-03        UMP4(DQ)=   -0.61455163944D+03
 E4(SDQ)=  -0.49186558D-02        UMP4(SDQ)=  -0.61455698631D+03
 DE(Corr)= -0.65311306     E(Corr)=     -614.53781088    
 NORM(A)=   0.10849475D+01
 Iteration Nr.   2
 **********************
 DD1Dir will call FoFMem   1 times, MxPair=       110
 NAB=    55 NAA=     0 NBB=     0.
 DE(Corr)= -0.66856266     E(CORR)=     -614.55326047     Delta=-1.54D-02
 NORM(A)=   0.10908509D+01
 Iteration Nr.   3
 **********************
 DD1Dir will call FoFMem   1 times, MxPair=       110
 NAB=    55 NAA=     0 NBB=     0.
 DE(Corr)= -0.66913885     E(CORR)=     -614.55383667     Delta=-5.76D-04
 NORM(A)=   0.10920122D+01
 Iteration Nr.   4
 **********************
 DD1Dir will call FoFMem   1 times, MxPair=       110
 NAB=    55 NAA=     0 NBB=     0.
 DE(Corr)= -0.67024367     E(CORR)=     -614.55494148     Delta=-1.10D-03
 NORM(A)=   0.10923222D+01
 Iteration Nr.   5
 **********************
 DD1Dir will call FoFMem   1 times, MxPair=       110
 NAB=    55 NAA=     0 NBB=     0.
 DE(Corr)= -0.67034867     E(CORR)=     -614.55504648     Delta=-1.05D-04
 NORM(A)=   0.10924292D+01
 Iteration Nr.   6
 **********************
 DD1Dir will call FoFMem   1 times, MxPair=       110
 NAB=    55 NAA=     0 NBB=     0.
 DE(Corr)= -0.67036286     E(CORR)=     -614.55506068     Delta=-1.42D-05
 NORM(A)=   0.10924430D+01
 Iteration Nr.   7
 **********************
 DD1Dir will call FoFMem   1 times, MxPair=       110
 NAB=    55 NAA=     0 NBB=     0.
 DE(Corr)= -0.67036413     E(CORR)=     -614.55506195     Delta=-1.27D-06
 NORM(A)=   0.10924445D+01
 Iteration Nr.   8
 **********************
 DD1Dir will call FoFMem   1 times, MxPair=       110
 NAB=    55 NAA=     0 NBB=     0.
 DE(Corr)= -0.67036299     E(CORR)=     -614.55506080     Delta= 1.14D-06
 NORM(A)=   0.10924474D+01
 Iteration Nr.   9
 **********************
 DD1Dir will call FoFMem   1 times, MxPair=       110
 NAB=    55 NAA=     0 NBB=     0.
 DE(Corr)= -0.67036304     E(CORR)=     -614.55506086     Delta=-5.19D-08
 NORM(A)=   0.10924478D+01
 Wavefunction amplitudes converged. E(Corr)=     -614.55506086    
 Largest amplitude= 3.56D-02
 Discarding MO integrals.

 **********************************************************************

            Population analysis using the SCF Density.

 **********************************************************************

 Orbital symmetries:
       Occupied  (A) (A) (A) (A) (A) (A) (A) (A) (A) (A) (A) (A)
                 (A) (A) (A) (A) (A)
       Virtual   (A) (A) (A) (A) (A) (A) (A) (A) (A) (A) (A) (A)
                 (A) (A) (A) (A) (A) (A) (A) (A) (A) (A) (A) (A)
                 (A) (A) (A) (A) (A) (A) (A) (A) (A) (A) (A) (A)
                 (A) (A) (A) (A) (A) (A) (A) (A) (A) (A) (A) (A)
                 (A) (A) (A) (A) (A) (A) (A) (A) (A) (A) (A) (A)
                 (A) (A) (A) (A) (A) (A) (A) (A) (A) (A) (A) (A)
                 (A) (A) (A) (A) (A) (A) (A) (A) (A) (A) (A) (A)
                 (A) (A) (A) (A) (A) (A) (A)
 The electronic state is 1-A.
 Alpha  occ. eigenvalues -- -104.89116 -26.33499 -15.67491 -10.61222  -8.07950
 Alpha  occ. eigenvalues --   -8.07678  -8.07621  -1.64305  -1.24033  -1.01506
 Alpha  occ. eigenvalues --   -0.76972  -0.72388  -0.71288  -0.61191  -0.55063
 Alpha  occ. eigenvalues --   -0.49311  -0.38323
 Alpha virt. eigenvalues --    0.11324   0.18253   0.26747   0.45792   0.47120
 Alpha virt. eigenvalues --    0.48222   0.51320   0.58697   0.62331   0.62714
 Alpha virt. eigenvalues --    0.62831   0.63357   0.68441   0.70099   0.82712
 Alpha virt. eigenvalues --    0.87028   0.92500   1.01065   1.05792   1.08244
 Alpha virt. eigenvalues --    1.12637   1.22070   1.39210   1.43935   1.54306
 Alpha virt. eigenvalues --    1.69657   1.74200   1.83827   2.02027   2.19340
 Alpha virt. eigenvalues --    2.20099   2.22413   2.23156   2.26504   2.30004
 Alpha virt. eigenvalues --    2.35542   2.38432   2.38800   2.42398   2.43155
 Alpha virt. eigenvalues --    2.54172   2.54443   2.55093   2.59748   2.62327
 Alpha virt. eigenvalues --    2.70172   2.72180   2.86482   3.14071   3.35596
 Alpha virt. eigenvalues --    3.37133   3.54143   3.63079   3.74581   3.87229
 Alpha virt. eigenvalues --    4.00017   4.10846   4.16483   4.27913   4.40212
 Alpha virt. eigenvalues --    4.48810   4.52016   4.53345   4.73100   4.74527
 Alpha virt. eigenvalues --    4.98518   5.12243   5.16343   5.24547   5.32155
 Alpha virt. eigenvalues --    5.32394   5.56881   5.93344   5.99232   6.12622
 Alpha virt. eigenvalues --    6.31961   6.59945   7.38309   7.38472   7.44261
 Alpha virt. eigenvalues --    7.48301   7.77494   7.89679   8.08129   8.88256
 Alpha virt. eigenvalues --    8.89519   9.26809   9.36215   9.53026  11.24485
 Alpha virt. eigenvalues --   11.94930
          Condensed to atoms (all electrons):
               1          2          3          4
     1  N    6.332369   0.162824   0.429461   0.130678
     2  Cl   0.162824  16.851112  -0.028083  -0.032731
     3  H    0.429461  -0.028083   0.411826  -0.026369
     4  F    0.130678  -0.032731  -0.026369   9.133132
 Mulliken charges:
               1
     1  N   -0.055332
     2  Cl   0.046877
     3  H    0.213165
     4  F   -0.204710
 Sum of Mulliken charges =  -0.00000
 Mulliken charges with hydrogens summed into heavy atoms:
               1
     1  N    0.157832
     2  Cl   0.046877
     4  F   -0.204710
 Electronic spatial extent (au):  <R**2>=            217.9156
 Charge=             -0.0000 electrons
 Dipole moment (field-independent basis, Debye):
    X=             -0.3993    Y=              1.7425    Z=              0.0003  Tot=              1.7877
 Quadrupole moment (field-independent basis, Debye-Ang):
   XX=            -23.2255   YY=            -19.9961   ZZ=            -24.3335
   XY=              2.3071   XZ=              0.0002   YZ=              0.0004
 Traceless Quadrupole moment (field-independent basis, Debye-Ang):
   XX=             -0.7071   YY=              2.5223   ZZ=             -1.8151
   XY=              2.3071   XZ=              0.0002   YZ=              0.0004
 Octapole moment (field-independent basis, Debye-Ang**2):
  XXX=              2.7522  YYY=              4.5577  ZZZ=              0.0003  XYY=              5.1200
  XXY=             -0.2140  XXZ=              0.0001  XZZ=              3.1448  YZZ=             -0.9332
  YYZ=              0.0006  XYZ=              0.0003
 Hexadecapole moment (field-independent basis, Debye-Ang**3):
 XXXX=           -169.1717 YYYY=            -31.3225 ZZZZ=            -23.0951 XXXY=              3.1011
 XXXZ=              0.0002 YYYX=              2.1279 YYYZ=              0.0010 ZZZX=              0.0003
 ZZZY=              0.0003 XXYY=            -33.4034 XXZZ=            -34.5142 YYZZ=            -11.3175
 XXYZ=              0.0003 YYXZ=              0.0005 ZZXY=             -1.1677
 N-N= 1.037765944877D+02 E-N=-1.669252646138D+03  KE= 6.137091738126D+02
 Unable to Open any file for archive entry.
 1\1\GINC-LAPTOP-P4FAIH0F\SP\RCCSD-FC\CC-pVTZ\Cl1F1H1N1\RKDQL\31-Jan-20
 24\0\\#N CCSD/cc-pVTZ SP Geom=Connectivity\\ts_sp\\0,1\N\Cl,1,1.654414
 361\H,1,0.995868382,2,127.3167591\F,1,1.366517703,2,116.4250973,3,179.
 9875507,0\\Version=ES64L-G16RevC.01\State=1-A\HF=-613.8846978\MP2=-614
 .5334105\MP3=-614.5520677\MP4D=-614.5657284\MP4DQ=-614.5516394\MP4SDQ=
 -614.5569863\CCSD=-614.5550609\RMSD=6.765e-09\PG=C01 [X(Cl1F1H1N1)]\\@
 The archive entry for this job was punched.


 ERROR IS A HARDY PLANT... IT FLOURISHETH IN EVERY SOIL.
            MARTIN FARQUHAR TUPPER
 Job cpu time:       0 days  0 hours  0 minutes 58.7 seconds.
 Elapsed time:       0 days  0 hours  1 minutes  2.0 seconds.
 File lengths (MBytes):  RWF=    455 Int=      0 D2E=      0 Chk=      2 Scr=      1
 Normal termination of Gaussian 16 at Wed Jan 31 16:06:25 2024.